! Job execution by suborca V 8.01 !
Job started from xe32th1, running /csnfs/software/orca/orca_current_directory/orca_current_20190416/orca on xe30th45 in /usr/scratch/llang/mol__SZ0N2s
Job execution start: Tue Apr 16 12:30:28 CEST 2019
Shared library path: /csnfs/software/openmpi-2.1.5/lib:/csnfs/software/orca/orca_current_directory/orca_current_20190416:/csnfs/software/orca/orca_stable:/usr/users/openmpi-2.0.4/lib:/opt/intel/lib/intel64:/opt/intel/mkl/lib/intel64
SGE Job ID is: 7844287
xe30th45 1 xe30th.q@xe30th45 UNDEFINED

                                 *****************
                                 * O   R   C   A *
                                 *****************

           --- An Ab Initio, DFT and Semiempirical electronic structure package ---

                  #######################################################
                  #                        -***-                        #
                  #          Department of theory and spectroscopy      #
                  #               Directorship: Frank Neese             #
                  #        Max Planck Institute fuer Kohlenforschung    #
                  #                Kaiser Wilhelm Platz 1               #
                  #                 D-45470 Muelheim/Ruhr               #
                  #                      Germany                        #
                  #                                                     #
                  #                  All rights reserved                #
                  #                        -***-                        #
                  #######################################################


                         Program Version 4.1  -  CURRENT   -
                                (SVN: $Rev: 13644$)
                ($Date: 2019-04-15 23:16:29 +0200 (Mo, 15 Apr 2019) $)

                  !                     WARNING:                         !
                  !         This is a DEVELOPMENT version                !

                         (BUILD: $Di 16. Apr 00:03:46 CEST 2019$)


 With contributions from (in alphabetic order):
   Daniel Aravena         : Magnetic Properties
   Michael Atanasov       : Ab Initio Ligand Field Theory
   Alexander A. Auer      : GIAO ZORA
   Ute Becker             : Parallelization
   Giovanni Bistoni       : ED, Open-shell LED
   Martin Brehm           : Molecular dynamics
   Dmytro Bykov           : SCF Hessian
   Vijay G. Chilkuri      : MRCI spin determinant printing
   Dipayan Datta          : RHF DLPNO-CCSD density
   Achintya Kumar Dutta   : EOM-CC, STEOM-CC
   Dmitry Ganyushin       : Spin-Orbit,Spin-Spin,Magnetic field MRCI
   Miquel Garcia          : C-PCM Hessian
   Yang Guo               : DLPNO-NEVPT2, CIM, IAO-localization
   Andreas Hansen         : Spin unrestricted coupled pair/coupled cluster methods
   Benjamin Helmich-Paris : CASSCF linear response (MC-RPA)
   Lee Huntington         : MR-EOM, pCC
   Robert Izsak           : Overlap fitted RIJCOSX, COSX-SCS-MP3, EOM
   Christian Kollmar      : KDIIS, OOCD, Brueckner-CCSD(T), CCSD density
   Simone Kossmann        : Meta GGA functionals, TD-DFT gradient, OOMP2, MP2 Hessian
   Martin Krupicka        : AUTO-CI
   Lucas Lang             : DCDCAS
   Dagmar Lenk            : GEPOL surface, SMD
   Dimitrios Liakos       : Extrapolation schemes; parallel MDCI
   Dimitrios Manganas     : ROCIS; embedding schemes
   Dimitrios Pantazis     : SARC Basis sets
   Taras Petrenko         : DFT Hessian,TD-DFT gradient, ASA, ECA, R-Raman, ABS, FL, XAS/XES, NRVS
   Peter Pinski           : DLPNO-MP2, DLPNO-MP2 Gradient
   Christoph Reimann      : Effective Core Potentials
   Marius Retegan         : Local ZFS, SOC
   Christoph Riplinger    : Optimizer, TS searches, QM/MM, DLPNO-CCSD(T), (RO)-DLPNO pert. Triples
   Tobias Risthaus        : Range-separated hybrids, TD-DFT gradient, RPA, STAB
   Michael Roemelt        : Restricted open shell CIS
   Masaaki Saitow         : Open-shell DLPNO
   Barbara Sandhoefer     : DKH picture change effects
   Avijit Sen             : IP-ROCIS
   Kantharuban Sivalingam : CASSCF convergence, NEVPT2, FIC-MRCI
   Bernardo de Souza      : ESD, SOC TD-DFT
   Georgi Stoychev        : AutoAux, RI-MP2 NMR
   Willem Van den Heuvel  : Paramagnetic NMR
   Boris Wezisla          : Elementary symmetry handling
   Frank Wennmohs         : Technical directorship


 We gratefully acknowledge several colleagues who have allowed us to
 interface, adapt or use parts of their codes:
   Stefan Grimme, W. Hujo, H. Kruse,             : VdW corrections, initial TS optimization,
                  C. Bannwarth                     DFT functionals, gCP, sTDA/sTD-DF
   Ed Valeev                                     : LibInt (2-el integral package), F12 methods
   Garnet Chan, S. Sharma, J. Yang, R. Olivares  : DMRG
   Ulf Ekstrom                                   : XCFun DFT Library
   Mihaly Kallay                                 : mrcc  (arbitrary order and MRCC methods)
   Andreas Klamt, Michael Diedenhofen            : otool_cosmo (COSMO solvation model)
   Jiri Pittner, Ondrej Demel                    : Mk-CCSD
   Frank Weinhold                                : gennbo (NPA and NBO analysis)
   Christopher J. Cramer and Donald G. Truhlar   : smd solvation model
   Lars Goerigk                                  : TD-DFT with DH, B97 family of functionals
   V. Asgeirsson, H. Jonsson                     : NEB implementation
   FAccTs GmbH                                   : IRC, NEB, NEB-TS, Multilevel


 Your calculation uses the libint2 library for the computation of 2-el integrals
 For citations please refer to: http://libint.valeyev.net

 This ORCA versions uses:
   CBLAS   interface :  Fast vector & matrix operations
   LAPACKE interface :  Fast linear algebra routines
   SCALAPACK package :  Parallel linear algebra routines


----- Orbital basis set information -----
Your calculation utilizes the basis: DKH-def2-TZVP
   Exponents from def2-TZVP [F. Weigend and R. Ahlrichs, Phys. Chem. Chem. Phys. 7, 3297 (2005)],
   recontracted for DKH2 by D. A. Pantazis.

================================================================================
                                        WARNINGS
                       Please study these warnings very carefully!
================================================================================


INFO   : the flag for use of LIBINT has been found!

================================================================================
                                       INPUT FILE
================================================================================
NAME = mol.inp
|  1> ! DKH2 DKH-def2-TZVP 
|  2> 
|  3> %casscf
|  4>   nel 3
|  5>   norb 5
|  6>   mult 4,2
|  7>   nroots 10,40
|  8>   actorbs dorbs
|  9> end
| 10> 
| 11> *xyz -3 4
| 12> Cr    -0.000000   -0.000000   -0.000000
| 13> F      1.942431   -0.000000    0.001004
| 14> F     -1.942431    0.000000   -0.001004
| 15> F     -0.000000    1.939530   -0.000000
| 16> F      0.000000   -1.939530   -0.000000
| 17> F      0.001004    0.000000    1.940401
| 18> F     -0.001004    0.000000   -1.940401
| 19> *
| 20> 
| 21>                          ****END OF INPUT****
================================================================================

                       ****************************
                       * Single Point Calculation *
                       ****************************

---------------------------------
CARTESIAN COORDINATES (ANGSTROEM)
---------------------------------
  Cr    -0.000000   -0.000000   -0.000000
  F      1.942431   -0.000000    0.001004
  F     -1.942431    0.000000   -0.001004
  F     -0.000000    1.939530   -0.000000
  F      0.000000   -1.939530   -0.000000
  F      0.001004    0.000000    1.940401
  F     -0.001004    0.000000   -1.940401

----------------------------
CARTESIAN COORDINATES (A.U.)
----------------------------
  NO LB      ZA    FRAG     MASS         X           Y           Z
   0 Cr   24.0000    0    52.000   -0.000000   -0.000000   -0.000000
   1 F     9.0000    0    18.998    3.670663   -0.000000    0.001897
   2 F     9.0000    0    18.998   -3.670663    0.000000   -0.001897
   3 F     9.0000    0    18.998   -0.000000    3.665181   -0.000000
   4 F     9.0000    0    18.998    0.000000   -3.665181   -0.000000
   5 F     9.0000    0    18.998    0.001897    0.000000    3.666826
   6 F     9.0000    0    18.998   -0.001897    0.000000   -3.666826

--------------------------------
INTERNAL COORDINATES (ANGSTROEM)
--------------------------------
 Cr     0   0   0     0.000000000000     0.00000000     0.00000000
 F      1   0   0     1.942431259473     0.00000000     0.00000000
 F      1   2   0     1.942431259473   180.00000000     0.00000000
 F      1   2   3     1.939530000000    90.00000000     0.00000000
 F      1   2   4     1.939530000000    90.00000000   180.00000121
 F      1   2   4     1.940401259744    89.94073916   270.00000000
 F      1   2   6     1.940401259744    90.05926084   180.00000121

---------------------------
INTERNAL COORDINATES (A.U.)
---------------------------
 Cr     0   0   0     0.000000000000     0.00000000     0.00000000
 F      1   0   0     3.670663114371     0.00000000     0.00000000
 F      1   2   0     3.670663114371   180.00000000     0.00000000
 F      1   2   3     3.665180528524    90.00000000     0.00000000
 F      1   2   4     3.665180528524    90.00000000   180.00000121
 F      1   2   4     3.666826970832    89.94073916   270.00000000
 F      1   2   6     3.666826970832    90.05926084   180.00000121

---------------------
BASIS SET INFORMATION
---------------------
There are 2 groups of distinct atoms

 Group   1 Type Cr  : 17s11p7d1f contracted to 10s6p4d1f pattern {8111111111/611111/4111/1}
 Group   2 Type F   : 11s6p2d1f contracted to 6s3p2d1f pattern {611111/411/11/1}

Atom   0Cr   basis set group =>   1
Atom   1F    basis set group =>   2
Atom   2F    basis set group =>   2
Atom   3F    basis set group =>   2
Atom   4F    basis set group =>   2
Atom   5F    basis set group =>   2
Atom   6F    basis set group =>   2

Checking for AutoStart:
The File: mol.gbw exists
Trying to determine its content:
     ... Fine, the file contains calculation information


WARNING!!!!!!!
Your GBWFile is either corrupt or from a different ORCA version!
Please be VERY careful with your calculation results!!!

Data_size, sizeof( TOrcaInfo ): 491312, 503032
     ... Fine, the calculation information was read
     ... Fine, the file contains a basis set
     ... Fine, the basis set was read
     ... Fine, the file contains a geometry
     ... Fine, the geometry was read
     ... Fine, the file contains a set of orbitals
     ... Fine, the orbitals can be read
     => possible old guess file was deleted
     => GBW file was renamed to GES file
     => GES file is set as startup file
     => Guess is set to MORead
     ... now leaving AutoStart

------------------------------------------------------------------------------
                           ORCA GTO INTEGRAL CALCULATION
------------------------------------------------------------------------------

                         BASIS SET STATISTICS AND STARTUP INFO

 # of primitive gaussian shells          ...  156
 # of primitive gaussian functions       ...  368
 # of contracted shells                  ...   93
 # of contracted basis functions         ...  247
 Highest angular momentum                ...    3
 Maximum contraction depth               ...    8
 Integral package used                   ... LIBINT
 Integral threshhold            Thresh   ...  1.000e-10
 Primitive cut-off              TCut     ...  1.000e-11


------------------------------ INTEGRAL EVALUATION ----------------------------


 * One electron integrals 
 Pre-screening matrix                    ... done
 Shell pair data                         ... done (   0.001 sec)

------------------------------------------------------------------------------
                          ORCA RELATIVISTIC HAMILTONIAN
------------------------------------------------------------------------------

Relativistic Method            ... DKH
Order of DKH treatment         ...   2
Treatment of potential         ... V(e,N)
Eps parameter for DKH          ...   0.00000000010000
Nucleus model                  ... Point Nucleus
Speed of light used            ... 137.03598950000000


            ************************************************
            *        DOUGLAS-KROLL-HESS HAMILTONIAN        *
            *   Programmed by FN according to literature   *
            *        procedures. Special thanks to         *
            *       B.A. Hess, M. Reiher and A. Wolf       *
            *     University Erlangen-Nuernberg/Bonn       *
            ************************************************

Uncontracting the basis (first version)        ... done
Number of contracted basis functions           ...  247
Number of uncontracted basis functions         ...  368
Initializing the DKH file                      ... done
Calculating the relativistic integrals         ... done
Storing DKH matrices                           ... done
Code used for DKH trafo                        ... ORCA
Computing the DKH transformation               ... done
Storing the transformation variables           ... done
Transforming V and pVp to p**2 space           ... done
First transformation of V and pVp              ... done
Second transformation of Veff                  ... done
Adding kinetic energy                          ... done
Back transformation of Veff to r-space         ... done
Recovering DKH matrices                        ... done
Recontracting the H-matrix (first version)     ... done
Computing the DKH correction to the H-matrix   ... done
Reading the original H-matrix                  ... done
Adding DKH correction to the H-matrix          ... done
Storing the new modified H-matrix              ... done
-------------------------------------------------------------------------------
                                 ORCA SCF
-------------------------------------------------------------------------------

------------
SCF SETTINGS
------------
Hamiltonian:
 Ab initio Hamiltonian  Method          .... Hartree-Fock(GTOs)

Relativistic Settings:
 Scalar relativistic method             .... Douglas-Kroll-Hess
 Order of DKH procedure    Order        ....    2
 Mode of DKH-treatment                  .... V=V(e,N)
 Speed of light used       Velit        ....       137.035989
 Cutoff-constant           Eps          ....            1e-10 


General Settings:
 Integral files         IntName         .... mol
 Hartree-Fock type      HFTyp           .... CASSCF
 Total Charge           Charge          ....   -3
 Multiplicity           Mult            ....    4
 Number of Electrons    NEL             ....   81
 Basis Dimension        Dim             ....  247
 Nuclear Repulsion      ENuc            ....    573.8993229824 Eh


Diagonalization of the overlap matrix:
Smallest eigenvalue                        ... 6.390e-04
Time for diagonalization                   ...    0.016 sec
Threshold for overlap eigenvalues          ... 1.000e-08
Number of eigenvalues below threshold      ... 0
Time for construction of square roots      ...    0.004 sec
Total time needed                          ...    0.021 sec

---------------------
INITIAL GUESS: MOREAD
---------------------


WARNING!!!!!!!
Your GBWFile is either corrupt or from a different ORCA version!
Please be VERY careful with your calculation results!!!

Data_size, sizeof( TOrcaInfo ): 491312, 503032
Guess MOs are being read from file: mol.ges
Input geometry compatible with but different from current geometry
Input basis set matches current basis set (good)
MOs were renormalized
Gram-Schmidt orthogonalization of all MOs with pivot on actives
                      ------------------
                      INITIAL GUESS DONE (   0.1 sec)
                      ------------------


 ... the calculation is a CASSCF calculation -I'm leaving here GOOD LUCK!!!

-------------------------------------------------------------------------------
                              ORCA-CASSCF
-------------------------------------------------------------------------------

Setting up the integral package       ... done
Building the CAS space                ... done (10 configurations for Mult=4)
Building the CAS space                ... done (30 configurations for Mult=2)

SYSTEM-SPECIFIC SETTINGS:
Number of active electrons          ...    3
Number of active orbitals           ...    5
Total number of electrons           ...   81
Total number of orbitals            ...  247

Determined orbital ranges:
   Internal       0 -   38 (  39 orbitals)
   Active        39 -   43 (   5 orbitals)
   External      44 -  246 ( 203 orbitals)
Number of rotation parameters      ...   9127

CI-STEP:
CI strategy                         ... General CI
Number of multiplicity blocks       ...    2
BLOCK  1 WEIGHT=   0.5000
  Multiplicity                      ...    4
  #(Configurations)                 ...   10
  #(CSFs)                           ...   10
  #(Roots)                          ...   10
    ROOT=0 WEIGHT=    0.050000
    ROOT=1 WEIGHT=    0.050000
    ROOT=2 WEIGHT=    0.050000
    ROOT=3 WEIGHT=    0.050000
    ROOT=4 WEIGHT=    0.050000
    ROOT=5 WEIGHT=    0.050000
    ROOT=6 WEIGHT=    0.050000
    ROOT=7 WEIGHT=    0.050000
    ROOT=8 WEIGHT=    0.050000
    ROOT=9 WEIGHT=    0.050000

BLOCK  2 WEIGHT=   0.5000
  Multiplicity                      ...    2
  #(Configurations)                 ...   30
  #(CSFs)                           ...   40
  #(Roots)                          ...   40
    ROOT=0 WEIGHT=    0.012500
    ROOT=1 WEIGHT=    0.012500
    ROOT=2 WEIGHT=    0.012500
    ROOT=3 WEIGHT=    0.012500
    ROOT=4 WEIGHT=    0.012500
    ROOT=5 WEIGHT=    0.012500
    ROOT=6 WEIGHT=    0.012500
    ROOT=7 WEIGHT=    0.012500
    ROOT=8 WEIGHT=    0.012500
    ROOT=9 WEIGHT=    0.012500
    ROOT=10 WEIGHT=    0.012500
    ROOT=11 WEIGHT=    0.012500
    ROOT=12 WEIGHT=    0.012500
    ROOT=13 WEIGHT=    0.012500
    ROOT=14 WEIGHT=    0.012500
    ROOT=15 WEIGHT=    0.012500
    ROOT=16 WEIGHT=    0.012500
    ROOT=17 WEIGHT=    0.012500
    ROOT=18 WEIGHT=    0.012500
    ROOT=19 WEIGHT=    0.012500
    ROOT=20 WEIGHT=    0.012500
    ROOT=21 WEIGHT=    0.012500
    ROOT=22 WEIGHT=    0.012500
    ROOT=23 WEIGHT=    0.012500
    ROOT=24 WEIGHT=    0.012500
    ROOT=25 WEIGHT=    0.012500
    ROOT=26 WEIGHT=    0.012500
    ROOT=27 WEIGHT=    0.012500
    ROOT=28 WEIGHT=    0.012500
    ROOT=29 WEIGHT=    0.012500
    ROOT=30 WEIGHT=    0.012500
    ROOT=31 WEIGHT=    0.012500
    ROOT=32 WEIGHT=    0.012500
    ROOT=33 WEIGHT=    0.012500
    ROOT=34 WEIGHT=    0.012500
    ROOT=35 WEIGHT=    0.012500
    ROOT=36 WEIGHT=    0.012500
    ROOT=37 WEIGHT=    0.012500
    ROOT=38 WEIGHT=    0.012500
    ROOT=39 WEIGHT=    0.012500

  PrintLevel                        ...    1
  N(GuessMat)                       ...       512
  MaxDim(CI)                        ...        10
  MaxIter(CI)                       ...        64
  Energy Tolerance CI               ...  1.00e-08
  Residual Tolerance CI             ...  1.00e-08
  Shift(CI)                         ...  1.00e-04

INTEGRAL-TRANSFORMATION-STEP:
  Algorithm                         ... EXACT

ORBITAL-IMPROVEMENT-STEP:
  Algorithm                         ... SuperCI(PT)
  Default Parametrization           ... CAYLEY
  Act-Act rotations                 ... depends on algorithm used

  Note: SuperCI(PT) will ignore FreezeIE, FreezeAct and FreezeGrad. In general Default settings are encouraged.
        In conjunction with ShiftUp, ShiftDn or GradScaling the performance of SuperCI(PT) is less optimal.  

  MaxRot                            ... 2.00e-01 
  Max. no of vectors (DIIS)         ... 15
  DThresh (cut-off) metric          ... 1.00e-06
  Switch step at gradient           ...  3.00e-02 
  Switch step at iteration          ...        50   
  Switch step to                    ... SuperCI(PT)    

SCF-SETTINGS:
  Incremental                       ... on
  RIJCOSX approximation             ... off
  RI-JK approximation               ... off
  AO integral handling              ... DIRECT
  Integral Neglect Thresh           ...  1.00e-10
  Primitive cutoff TCut             ...  1.00e-11
  Energy convergence tolerance      ...  1.00e-07
  Orbital gradient convergence      ...  1.00e-03
  Max. number of iterations         ...        75  

FINAL ORBITALS:
  Active   Orbitals                 ... d-orbitals 
  Internal Orbitals                 ... canonical 
  External Orbitals                 ... canonical 

------------------
CAS-SCF ITERATIONS
------------------


MACRO-ITERATION   1: 
   --- Inactive Energy E0 = -1643.90967360 Eh
CI-ITERATION   0: 
 -1646.339922398   0.000000000000 (    0.00)
 -1646.280270961   0.000000000000
 -1646.280214558   0.000000000000
 -1646.280068361   0.000000000000
 -1646.243910539   0.000000000000
 -1646.243739263   0.000000000000
 -1646.243673439   0.000000000000
 -1646.182568584   0.000000000000
 -1646.182454990   0.000000000000
 -1646.182450409   0.000000000000
   CI-PROBLEM SOLVED
   DENSITIES MADE
CI-ITERATION   0: 
 -1646.250338454   0.000000000000 (    0.00)
 -1646.250321886   0.000000000000
 -1646.245647163   0.000000000000
 -1646.245627737   0.000000000000
 -1646.245627605   0.000000000000
 -1646.214169615   0.000000000000
 -1646.214132263   0.000000000000
 -1646.214120198   0.000000000000
 -1646.204743393   0.000000000000
 -1646.190869003   0.000000000000
 -1646.190841228   0.000000000000
 -1646.190749385   0.000000000000
 -1646.185959197   0.000000000000
 -1646.185945451   0.000000000000
 -1646.185896496   0.000000000000
 -1646.175467714   0.000000000000
 -1646.175452025   0.000000000000
 -1646.158909065   0.000000000000
 -1646.158745848   0.000000000000
 -1646.158674625   0.000000000000
 -1646.129625752   0.000000000000
 -1646.129345418   0.000000000000
 -1646.129217743   0.000000000000
 -1646.128610701   0.000000000000
 -1646.128578597   0.000000000000
 -1646.128512789   0.000000000000
 -1646.105627622   0.000000000000
 -1646.099656875   0.000000000000
 -1646.099548852   0.000000000000
 -1646.099510058   0.000000000000
 -1646.089540911   0.000000000000
 -1646.089487125   0.000000000000
 -1646.071733769   0.000000000000
 -1646.071705742   0.000000000000
 -1646.071694986   0.000000000000
 -1645.984990420   0.000000000000
 -1645.984872397   0.000000000000
 -1645.972559944   0.000000000000
 -1645.972397928   0.000000000000
 -1645.972012471   0.000000000000
   CI-PROBLEM SOLVED
   DENSITIES MADE

                 <<<<<<<<<<<<<<<<<<INITIAL CI STATE CHECK>>>>>>>>>>>>>>>>>>

BLOCK  1 MULT= 4 NROOTS=10 
ROOT   0:  E=   -1646.3399223983 Eh
      1.00000 [     1]: 11010
ROOT   1:  E=   -1646.2802709608 Eh  1.623 eV  13092.0 cm**-1
      0.74766 [     0]: 11100
      0.25233 [     2]: 11001
ROOT   2:  E=   -1646.2802145578 Eh  1.625 eV  13104.4 cm**-1
      0.99580 [     8]: 01011
      0.00312 [     3]: 10110
ROOT   3:  E=   -1646.2800683612 Eh  1.629 eV  13136.4 cm**-1
      0.74783 [     3]: 10110
      0.24800 [     5]: 10011
      0.00417 [     8]: 01011
ROOT   4:  E=   -1646.2439105389 Eh  2.613 eV  21072.2 cm**-1
      0.46042 [     5]: 10011
      0.36591 [     7]: 01101
      0.15243 [     3]: 10110
      0.01322 [     6]: 01110
      0.00802 [     4]: 10101
ROOT   5:  E=   -1646.2437392630 Eh  2.617 eV  21109.8 cm**-1
      0.60984 [     6]: 01110
      0.36889 [     4]: 10101
      0.01000 [     5]: 10011
      0.00793 [     7]: 01101
      0.00331 [     3]: 10110
ROOT   6:  E=   -1646.2436734393 Eh  2.619 eV  21124.2 cm**-1
      0.46437 [     2]: 11001
      0.37827 [     9]: 00111
      0.15735 [     0]: 11100
ROOT   7:  E=   -1646.1825685842 Eh  4.282 eV  34535.2 cm**-1
      0.47219 [     7]: 01101
      0.21158 [     5]: 10011
      0.15327 [     4]: 10101
      0.09266 [     6]: 01110
      0.07029 [     3]: 10110
ROOT   8:  E=   -1646.1824549903 Eh  4.285 eV  34560.1 cm**-1
      0.62138 [     9]: 00111
      0.28314 [     2]: 11001
      0.09493 [     0]: 11100
ROOT   9:  E=   -1646.1824504086 Eh  4.285 eV  34561.1 cm**-1
      0.46956 [     4]: 10101
      0.28409 [     6]: 01110
      0.15387 [     7]: 01101
      0.06892 [     5]: 10011
      0.02300 [     3]: 10110

BLOCK  2 MULT= 2 NROOTS=40 
ROOT   0:  E=   -1646.2503384539 Eh
      0.94430 [     6]: 11010
      0.02053 [     3]: 20001
      0.01963 [    25]: 00120
      0.00948 [    28]: 00021
ROOT   1:  E=   -1646.2503218856 Eh  0.000 eV      3.6 cm**-1
      0.94443 [     6]: 11010
      0.02359 [    14]: 02100
      0.01289 [     3]: 20001
      0.00902 [    16]: 02001
      0.00582 [    25]: 00120
ROOT   2:  E=   -1646.2456471631 Eh  0.128 eV   1029.6 cm**-1
      0.35623 [    20]: 01020
      0.35509 [     0]: 21000
      0.11537 [    11]: 10020
      0.11422 [     4]: 12000
      0.02336 [     9]: 10110
      0.01338 [    12]: 10011
      0.00926 [    21]: 01011
      0.00327 [    19]: 01101
      0.00266 [    18]: 01110
      0.00254 [    10]: 10101
ROOT   3:  E=   -1646.2456277374 Eh  0.128 eV   1033.9 cm**-1
      0.44811 [     2]: 20010
      0.44491 [    15]: 02010
      0.02965 [     5]: 11100
      0.01811 [    11]: 10020
      0.01792 [     4]: 12000
      0.01658 [     7]: 11001
      0.00592 [    20]: 01020
      0.00589 [     0]: 21000
      0.00410 [    26]: 00111
      0.00292 [    23]: 00210
      0.00288 [    29]: 00012
ROOT   4:  E=   -1646.2456276054 Eh  0.128 eV   1033.9 cm**-1
      0.33945 [    11]: 10020
      0.33584 [     4]: 12000
      0.10915 [    20]: 01020
      0.10873 [     0]: 21000
      0.02713 [    21]: 01011
      0.02400 [     2]: 20010
      0.02383 [    15]: 02010
      0.00775 [    18]: 01110
      0.00750 [    10]: 10101
      0.00715 [     9]: 10110
      0.00405 [    12]: 10011
ROOT   5:  E=   -1646.2141696147 Eh  0.984 eV   7938.1 cm**-1
      0.21973 [     0]: 21000
      0.21896 [    20]: 01020
      0.12637 [     4]: 12000
      0.12513 [    11]: 10020
      0.09180 [     9]: 10110
      0.07555 [    12]: 10011
      0.05801 [    21]: 01011
      0.03858 [    18]: 01110
      0.01810 [    22]: 01002
      0.01407 [     8]: 10200
      0.00809 [    17]: 01200
      0.00304 [    19]: 01101
      0.00258 [    13]: 10002
ROOT   6:  E=   -1646.2141322635 Eh  0.985 eV   7946.3 cm**-1
      0.34575 [    15]: 02010
      0.34373 [     2]: 20010
      0.14507 [     5]: 11100
      0.11982 [     7]: 11001
      0.02838 [    29]: 00012
      0.01255 [    23]: 00210
      0.00468 [    26]: 00111
ROOT   7:  E=   -1646.2141201977 Eh  0.986 eV   7949.0 cm**-1
      0.22005 [     4]: 12000
      0.21829 [    11]: 10020
      0.12613 [     0]: 21000
      0.12592 [    20]: 01020
      0.10056 [    21]: 01011
      0.06726 [    18]: 01110
      0.05259 [     9]: 10110
      0.04326 [    12]: 10011
      0.02456 [     8]: 10200
      0.01045 [    22]: 01002
      0.00466 [    17]: 01200
      0.00454 [    13]: 10002
ROOT   8:  E=   -1646.2047433929 Eh  1.241 eV  10007.0 cm**-1
      0.33268 [     1]: 20100
      0.25169 [    16]: 02001
      0.24908 [    28]: 00021
      0.08419 [    14]: 02100
      0.08236 [    25]: 00120
ROOT   9:  E=   -1646.1908690026 Eh  1.618 eV  13052.0 cm**-1
      0.56124 [     5]: 11100
      0.30770 [     7]: 11001
      0.04248 [    26]: 00111
      0.03040 [     2]: 20010
      0.02949 [    15]: 02010
      0.02867 [    23]: 00210
ROOT  10:  E=   -1646.1908412275 Eh  1.619 eV  13058.1 cm**-1
      0.68993 [    21]: 01011
      0.15158 [    18]: 01110
      0.06218 [    13]: 10002
      0.02922 [    11]: 10020
      0.02802 [     4]: 12000
      0.01891 [     9]: 10110
      0.00950 [    12]: 10011
      0.00649 [     8]: 10200
ROOT  11:  E=   -1646.1907493845 Eh  1.622 eV  13078.3 cm**-1
      0.56146 [     9]: 10110
      0.28176 [    12]: 10011
      0.04076 [    19]: 01101
      0.02812 [    20]: 01020
      0.02772 [     0]: 21000
      0.02761 [    17]: 01200
      0.02316 [    21]: 01011
      0.00514 [    18]: 01110
ROOT  12:  E=   -1646.1859591972 Eh  1.752 eV  14129.6 cm**-1
      0.65185 [     5]: 11100
      0.31245 [     7]: 11001
      0.01406 [    26]: 00111
      0.01139 [    15]: 02010
      0.00959 [     2]: 20010
ROOT  13:  E=   -1646.1859454509 Eh  1.752 eV  14132.6 cm**-1
      0.73732 [    21]: 01011
      0.15207 [    18]: 01110
      0.04945 [     9]: 10110
      0.02564 [    12]: 10011
      0.01351 [    10]: 10101
      0.01079 [     4]: 12000
      0.00843 [    11]: 10020
ROOT  14:  E=   -1646.1858964959 Eh  1.754 eV  14143.4 cm**-1
      0.58546 [     9]: 10110
      0.30456 [    12]: 10011
      0.06217 [    21]: 01011
      0.01291 [    18]: 01110
      0.01288 [    19]: 01101
      0.00972 [     0]: 21000
      0.00902 [    20]: 01020
ROOT  15:  E=   -1646.1754677136 Eh  2.037 eV  16432.2 cm**-1
      0.45075 [    28]: 00021
      0.33108 [     1]: 20100
      0.10306 [    14]: 02100
      0.07419 [    25]: 00120
      0.03793 [     3]: 20001
ROOT  16:  E=   -1646.1754520252 Eh  2.038 eV  16435.7 cm**-1
      0.45172 [    16]: 02001
      0.24669 [     1]: 20100
      0.13666 [    25]: 00120
      0.10604 [    14]: 02100
      0.05029 [     3]: 20001
      0.00623 [    28]: 00021
ROOT  17:  E=   -1646.1589090648 Eh  2.488 eV  20066.4 cm**-1
      0.52403 [    12]: 10011
      0.24613 [     9]: 10110
      0.11176 [    19]: 01101
      0.04900 [    17]: 01200
      0.04847 [    22]: 01002
      0.00897 [     0]: 21000
      0.00886 [    20]: 01020
ROOT  18:  E=   -1646.1587458483 Eh  2.492 eV  20102.3 cm**-1
      0.66554 [    18]: 01110
      0.20945 [    10]: 10101
      0.10463 [    21]: 01011
      0.00894 [     4]: 12000
      0.00862 [    11]: 10020
ROOT  19:  E=   -1646.1586746247 Eh  2.494 eV  20117.9 cm**-1
      0.52690 [     7]: 11001
      0.24544 [     5]: 11100
      0.11055 [    26]: 00111
      0.05042 [    29]: 00012
      0.04920 [    23]: 00210
      0.00886 [    15]: 02010
      0.00863 [     2]: 20010
ROOT  20:  E=   -1646.1296257518 Eh  3.285 eV  26493.4 cm**-1
      0.33818 [    19]: 01101
      0.32881 [    22]: 01002
      0.18003 [    12]: 10011
      0.11850 [     9]: 10110
      0.01503 [    17]: 01200
      0.00998 [    20]: 01020
      0.00943 [     0]: 21000
ROOT  21:  E=   -1646.1293454179 Eh  3.292 eV  26554.9 cm**-1
      0.65589 [     8]: 10200
      0.20889 [    18]: 01110
      0.08385 [    21]: 01011
      0.01746 [    10]: 10101
      0.01465 [    13]: 10002
      0.01085 [    11]: 10020
      0.00833 [     4]: 12000
ROOT  22:  E=   -1646.1292177427 Eh  3.296 eV  26582.9 cm**-1
      0.37936 [    29]: 00012
      0.30252 [    26]: 00111
      0.18334 [     7]: 11001
      0.11007 [     5]: 11100
      0.01073 [     2]: 20010
      0.00854 [    15]: 02010
      0.00542 [    23]: 00210
ROOT  23:  E=   -1646.1286107009 Eh  3.312 eV  26716.2 cm**-1
      0.80117 [    26]: 00111
      0.10908 [    23]: 00210
      0.06191 [    29]: 00012
      0.02336 [     5]: 11100
      0.00297 [    15]: 02010
ROOT  24:  E=   -1646.1285785966 Eh  3.313 eV  26723.2 cm**-1
      0.88053 [    10]: 10101
      0.06162 [    19]: 01101
      0.01947 [    21]: 01011
      0.01119 [     8]: 10200
      0.00959 [    22]: 01002
      0.00805 [    17]: 01200
      0.00369 [    18]: 01110
      0.00290 [     4]: 12000
ROOT  25:  E=   -1646.1285127888 Eh  3.315 eV  26737.6 cm**-1
      0.70140 [    19]: 01101
      0.10307 [    22]: 01002
      0.09222 [    17]: 01200
      0.07833 [    10]: 10101
      0.01244 [     9]: 10110
      0.00626 [    12]: 10011
ROOT  26:  E=   -1646.1056276219 Eh  3.938 eV  31760.4 cm**-1
      0.33418 [     3]: 20001
      0.25359 [    25]: 00120
      0.24647 [    14]: 02100
      0.08295 [    16]: 02001
      0.08274 [    28]: 00021
ROOT  27:  E=   -1646.0996568748 Eh  4.100 eV  33070.8 cm**-1
      0.36833 [    12]: 10011
      0.25507 [    19]: 01101
      0.12526 [     9]: 10110
      0.06619 [     0]: 21000
      0.06606 [    20]: 01020
      0.04561 [    22]: 01002
      0.03906 [    17]: 01200
      0.01751 [    18]: 01110
      0.00621 [     8]: 10200
      0.00588 [    13]: 10002
ROOT  28:  E=   -1646.0995488516 Eh  4.103 eV  33094.5 cm**-1
      0.49107 [    18]: 01110
      0.17540 [     8]: 10200
      0.16426 [    13]: 10002
      0.06574 [     4]: 12000
      0.06529 [    11]: 10020
      0.01310 [    12]: 10011
      0.00905 [    19]: 01101
      0.00449 [     9]: 10110
      0.00381 [    21]: 01011
ROOT  29:  E=   -1646.0995100579 Eh  4.104 eV  33103.0 cm**-1
      0.38261 [     7]: 11001
      0.26301 [    26]: 00111
      0.13054 [     5]: 11100
      0.06775 [    15]: 02010
      0.06744 [     2]: 20010
      0.04694 [    29]: 00012
      0.04169 [    23]: 00210
ROOT  30:  E=   -1646.0895409107 Eh  4.376 eV  35291.0 cm**-1
      0.38365 [    27]: 00102
      0.24013 [    24]: 00201
      0.14302 [    14]: 02100
      0.07556 [     3]: 20001
      0.06016 [    16]: 02001
      0.04586 [    25]: 00120
      0.03363 [     6]: 11010
      0.01571 [     1]: 20100
ROOT  31:  E=   -1646.0894871251 Eh  4.377 eV  35302.8 cm**-1
      0.38149 [    24]: 00201
      0.23875 [    27]: 00102
      0.12750 [     3]: 20001
      0.11076 [    25]: 00120
      0.06775 [    28]: 00021
      0.03390 [     6]: 11010
      0.01915 [    14]: 02100
      0.01081 [    16]: 02001
      0.00989 [     1]: 20100
ROOT  32:  E=   -1646.0717337695 Eh  4.860 eV  39199.2 cm**-1
      0.34744 [    19]: 01101
      0.22092 [    17]: 01200
      0.22059 [    22]: 01002
      0.12639 [    12]: 10011
      0.06753 [     9]: 10110
      0.00859 [     0]: 21000
      0.00853 [    20]: 01020
ROOT  33:  E=   -1646.0717057417 Eh  4.861 eV  39205.3 cm**-1
      0.78853 [    10]: 10101
      0.15654 [    18]: 01110
      0.03785 [    21]: 01011
      0.00863 [     4]: 12000
      0.00843 [    11]: 10020
ROOT  34:  E=   -1646.0716949858 Eh  4.861 eV  39207.7 cm**-1
      0.34987 [    26]: 00111
      0.21963 [    29]: 00012
      0.21884 [    23]: 00210
      0.12711 [     7]: 11001
      0.06749 [     5]: 11100
      0.00859 [    15]: 02010
      0.00845 [     2]: 20010
ROOT  35:  E=   -1645.9849904196 Eh  7.220 eV  58237.2 cm**-1
      0.22950 [    24]: 00201
      0.20842 [     3]: 20001
      0.18037 [    25]: 00120
      0.14589 [    27]: 00102
      0.12266 [    28]: 00021
      0.03957 [    14]: 02100
      0.02901 [    16]: 02001
      0.02415 [     1]: 20100
      0.02043 [     6]: 11010
ROOT  36:  E=   -1645.9848723966 Eh  7.224 eV  58263.1 cm**-1
      0.23316 [    14]: 02100
      0.22731 [    27]: 00102
      0.14449 [    24]: 00201
      0.13270 [     3]: 20001
      0.10367 [    16]: 02001
      0.09075 [    25]: 00120
      0.03834 [     1]: 20100
      0.02054 [     6]: 11010
      0.00903 [    28]: 00021
ROOT  37:  E=   -1645.9725599435 Eh  7.559 eV  60965.3 cm**-1
      0.53107 [    23]: 00210
      0.21006 [    29]: 00012
      0.10732 [    26]: 00111
      0.04799 [     2]: 20010
      0.04790 [    15]: 02010
      0.03367 [     5]: 11100
      0.02198 [     7]: 11001
ROOT  38:  E=   -1645.9723979275 Eh  7.563 eV  61000.9 cm**-1
      0.73763 [    13]: 10002
      0.10449 [     8]: 10200
      0.04752 [    11]: 10020
      0.04741 [     4]: 12000
      0.03894 [    21]: 01011
      0.01614 [    18]: 01110
      0.00419 [    17]: 01200
ROOT  39:  E=   -1645.9720124709 Eh  7.574 eV  61085.5 cm**-1
      0.52539 [    17]: 01200
      0.20845 [    22]: 01002
      0.10903 [    19]: 01101
      0.04724 [    20]: 01020
      0.04720 [     0]: 21000
      0.03309 [     9]: 10110
      0.02172 [    12]: 10011
      0.00584 [    13]: 10002

                 <<<<<<<<<<<<<<<<<<INITIAL CI STATE CHECK>>>>>>>>>>>>>>>>>>

   E(CAS)= -1646.191732031 Eh DE=     0.000000000
   --- Energy gap subspaces: Ext-Act = -0.041   Act-Int = 0.523
   N(occ)=  0.60000 0.60000 0.60000 0.60000 0.60000
   ||g|| =      0.281948208 Max(G)=     0.123054356 Rot=43,4
   --- Orbital Update [SuperCI(PT)]
   --- Canonicalize Internal Space
   --- Canonicalize External Space
   --- SX_PT (Skipped TA=0 IT=0): ||X|| =      0.039904220 Max(X)(41,16) =     -0.013797420 
   --- SFit(Active Orbitals)

MACRO-ITERATION   2: 
   --- Inactive Energy E0 = -1643.97145528 Eh
CI-ITERATION   0: 
 -1646.344026881   0.000000000000 (    0.00)
 -1646.283644510   0.000000000000
 -1646.283570773   0.000000000000
 -1646.283390289   0.000000000000
 -1646.247129539   0.000000000000
 -1646.246930637   0.000000000000
 -1646.246854361   0.000000000000
 -1646.185999253   0.000000000000
 -1646.185868493   0.000000000000
 -1646.185866042   0.000000000000
   CI-PROBLEM SOLVED
   DENSITIES MADE
CI-ITERATION   0: 
 -1646.254985265   0.000000000000 (    0.00)
 -1646.254964435   0.000000000000
 -1646.250309802   0.000000000000
 -1646.250301314   0.000000000000
 -1646.250288883   0.000000000000
 -1646.218728837   0.000000000000
 -1646.218683363   0.000000000000
 -1646.218675958   0.000000000000
 -1646.208683956   0.000000000000
 -1646.195052202   0.000000000000
 -1646.195011894   0.000000000000
 -1646.194894345   0.000000000000
 -1646.190110242   0.000000000000
 -1646.190075155   0.000000000000
 -1646.189993411   0.000000000000
 -1646.179638762   0.000000000000
 -1646.179602498   0.000000000000
 -1646.163180057   0.000000000000
 -1646.162985752   0.000000000000
 -1646.162902237   0.000000000000
 -1646.133604737   0.000000000000
 -1646.133268624   0.000000000000
 -1646.133115268   0.000000000000
 -1646.132177073   0.000000000000
 -1646.132137288   0.000000000000
 -1646.132054120   0.000000000000
 -1646.110364700   0.000000000000
 -1646.104296995   0.000000000000
 -1646.104138781   0.000000000000
 -1646.104076826   0.000000000000
 -1646.093053077   0.000000000000
 -1646.092946252   0.000000000000
 -1646.076041794   0.000000000000
 -1646.076033045   0.000000000000
 -1646.076012519   0.000000000000
 -1645.989978800   0.000000000000
 -1645.989863032   0.000000000000
 -1645.977796203   0.000000000000
 -1645.977620668   0.000000000000
 -1645.977200263   0.000000000000
   CI-PROBLEM SOLVED
   DENSITIES MADE
   E(CAS)= -1646.195599644 Eh DE=    -0.003867614
   --- Energy gap subspaces: Ext-Act = -0.052   Act-Int = 0.533
   N(occ)=  0.60000 0.60000 0.60000 0.60000 0.60000
   ||g|| =      0.047593177 Max(G)=    -0.014481610 Rot=50,21
   --- Orbital Update [SuperCI(PT)]
   --- Canonicalize Internal Space
   --- Canonicalize External Space
   --- SX_PT (Skipped TA=0 IT=0): ||X|| =      0.010822790 Max(X)(53,21) =     -0.003393169 
   --- SFit(Active Orbitals)

MACRO-ITERATION   3: 
   --- Inactive Energy E0 = -1643.97264251 Eh
CI-ITERATION   0: 
 -1646.343810738   0.000000000000 (    0.00)
 -1646.283493933   0.000000000000
 -1646.283417768   0.000000000000
 -1646.283235462   0.000000000000
 -1646.247069938   0.000000000000
 -1646.246867649   0.000000000000
 -1646.246789570   0.000000000000
 -1646.186210091   0.000000000000
 -1646.186073976   0.000000000000
 -1646.186071609   0.000000000000
   CI-PROBLEM SOLVED
   DENSITIES MADE
CI-ITERATION   0: 
 -1646.255232050   0.000000000000 (    0.00)
 -1646.255210744   0.000000000000
 -1646.250578358   0.000000000000
 -1646.250572019   0.000000000000
 -1646.250555576   0.000000000000
 -1646.219090664   0.000000000000
 -1646.219042971   0.000000000000
 -1646.219036278   0.000000000000
 -1646.208952752   0.000000000000
 -1646.195388450   0.000000000000
 -1646.195347633   0.000000000000
 -1646.195230417   0.000000000000
 -1646.190475828   0.000000000000
 -1646.190437635   0.000000000000
 -1646.190351665   0.000000000000
 -1646.180062226   0.000000000000
 -1646.180017882   0.000000000000
 -1646.163636947   0.000000000000
 -1646.163439658   0.000000000000
 -1646.163354349   0.000000000000
 -1646.134083026   0.000000000000
 -1646.133743923   0.000000000000
 -1646.133587275   0.000000000000
 -1646.132609191   0.000000000000
 -1646.132567938   0.000000000000
 -1646.132479848   0.000000000000
 -1646.111119963   0.000000000000
 -1646.105046244   0.000000000000
 -1646.104879396   0.000000000000
 -1646.104813128   0.000000000000
 -1646.093586162   0.000000000000
 -1646.093470128   0.000000000000
 -1646.076812878   0.000000000000
 -1646.076798055   0.000000000000
 -1646.076762669   0.000000000000
 -1645.991211364   0.000000000000
 -1645.991094180   0.000000000000
 -1645.979044467   0.000000000000
 -1645.978868963   0.000000000000
 -1645.978451153   0.000000000000
   CI-PROBLEM SOLVED
   DENSITIES MADE
   E(CAS)= -1646.195865087 Eh DE=    -0.000265443
   --- Energy gap subspaces: Ext-Act = -0.047   Act-Int = 0.528
   N(occ)=  0.60000 0.60000 0.60000 0.60000 0.60000
   ||g|| =      0.020048532 Max(G)=     0.004611420 Rot=228,11
   --- Orbital Update [SuperCI(PT)]
   --- Canonicalize Internal Space
   --- Canonicalize External Space
   --- SX_PT (Skipped TA=0 IT=0): ||X|| =      0.003555243 Max(X)(41,22) =      0.001271982 
   --- SFit(Active Orbitals)

MACRO-ITERATION   4: 
   --- Inactive Energy E0 = -1643.98204582 Eh
CI-ITERATION   0: 
 -1646.343775282   0.000000000000 (    0.00)
 -1646.283464671   0.000000000000
 -1646.283387560   0.000000000000
 -1646.283202772   0.000000000000
 -1646.247054249   0.000000000000
 -1646.246847538   0.000000000000
 -1646.246768107   0.000000000000
 -1646.186224070   0.000000000000
 -1646.186086520   0.000000000000
 -1646.186083500   0.000000000000
   CI-PROBLEM SOLVED
   DENSITIES MADE
CI-ITERATION   0: 
 -1646.255230270   0.000000000000 (    0.00)
 -1646.255208591   0.000000000000
 -1646.250576863   0.000000000000
 -1646.250570906   0.000000000000
 -1646.250553812   0.000000000000
 -1646.219097944   0.000000000000
 -1646.219049519   0.000000000000
 -1646.219043039   0.000000000000
 -1646.208959411   0.000000000000
 -1646.195421152   0.000000000000
 -1646.195380247   0.000000000000
 -1646.195262160   0.000000000000
 -1646.190498214   0.000000000000
 -1646.190459490   0.000000000000
 -1646.190372750   0.000000000000
 -1646.180084939   0.000000000000
 -1646.180037715   0.000000000000
 -1646.163691547   0.000000000000
 -1646.163489790   0.000000000000
 -1646.163403297   0.000000000000
 -1646.134147756   0.000000000000
 -1646.133802686   0.000000000000
 -1646.133644036   0.000000000000
 -1646.132658243   0.000000000000
 -1646.132616025   0.000000000000
 -1646.132525386   0.000000000000
 -1646.111184051   0.000000000000
 -1646.105122343   0.000000000000
 -1646.104951732   0.000000000000
 -1646.104884248   0.000000000000
 -1646.093640206   0.000000000000
 -1646.093521656   0.000000000000
 -1646.076910981   0.000000000000
 -1646.076895071   0.000000000000
 -1646.076856732   0.000000000000
 -1645.991347417   0.000000000000
 -1645.991226569   0.000000000000
 -1645.979214320   0.000000000000
 -1645.979036853   0.000000000000
 -1645.978611327   0.000000000000
   CI-PROBLEM SOLVED
   DENSITIES MADE
   E(CAS)= -1646.195884580 Eh DE=    -0.000019492
   --- Energy gap subspaces: Ext-Act = -0.049   Act-Int = 0.530
   N(occ)=  0.60000 0.60000 0.60000 0.60000 0.60000
   ||g|| =      0.005833826 Max(G)=    -0.001142983 Rot=50,21
   --- Orbital Update [SuperCI(PT)]
   --- Canonicalize Internal Space
   --- Canonicalize External Space
   --- SX_PT (Skipped TA=0 IT=0): ||X|| =      0.000969484 Max(X)(57,42) =      0.000283589 
   --- SFit(Active Orbitals)

MACRO-ITERATION   5: 
   --- Inactive Energy E0 = -1643.98173890 Eh
CI-ITERATION   0: 
 -1646.343738776   0.000000000000 (    0.00)
 -1646.283435380   0.000000000000
 -1646.283358072   0.000000000000
 -1646.283173577   0.000000000000
 -1646.247031796   0.000000000000
 -1646.246824745   0.000000000000
 -1646.246744980   0.000000000000
 -1646.186222600   0.000000000000
 -1646.186084877   0.000000000000
 -1646.186081759   0.000000000000
   CI-PROBLEM SOLVED
   DENSITIES MADE
CI-ITERATION   0: 
 -1646.255233867   0.000000000000 (    0.00)
 -1646.255212223   0.000000000000
 -1646.250581931   0.000000000000
 -1646.250576015   0.000000000000
 -1646.250558861   0.000000000000
 -1646.219111246   0.000000000000
 -1646.219062732   0.000000000000
 -1646.219056232   0.000000000000
 -1646.208964401   0.000000000000
 -1646.195426043   0.000000000000
 -1646.195385231   0.000000000000
 -1646.195267721   0.000000000000
 -1646.190508979   0.000000000000
 -1646.190470270   0.000000000000
 -1646.190383900   0.000000000000
 -1646.180102043   0.000000000000
 -1646.180054346   0.000000000000
 -1646.163704203   0.000000000000
 -1646.163502410   0.000000000000
 -1646.163415708   0.000000000000
 -1646.134161779   0.000000000000
 -1646.133816950   0.000000000000
 -1646.133657946   0.000000000000
 -1646.132671140   0.000000000000
 -1646.132628807   0.000000000000
 -1646.132537941   0.000000000000
 -1646.111223468   0.000000000000
 -1646.105159906   0.000000000000
 -1646.104989403   0.000000000000
 -1646.104921782   0.000000000000
 -1646.093662268   0.000000000000
 -1646.093544122   0.000000000000
 -1646.076946146   0.000000000000
 -1646.076930083   0.000000000000
 -1646.076891345   0.000000000000
 -1645.991421441   0.000000000000
 -1645.991299929   0.000000000000
 -1645.979280853   0.000000000000
 -1645.979103000   0.000000000000
 -1645.978677651   0.000000000000
   CI-PROBLEM SOLVED
   DENSITIES MADE
   E(CAS)= -1646.195886132 Eh DE=    -0.000001553
   --- Energy gap subspaces: Ext-Act = -0.049   Act-Int = 0.530
   N(occ)=  0.60000 0.60000 0.60000 0.60000 0.60000
   ||g|| =      0.001707233 Max(G)=    -0.000282587 Rot=137,37
   --- Orbital Update [SuperCI(PT)]
   --- Canonicalize Internal Space
   --- Canonicalize External Space
   --- SX_PT (Skipped TA=0 IT=0): ||X|| =      0.000230587 Max(X)(42,26) =     -0.000050474 
   --- SFit(Active Orbitals)

MACRO-ITERATION   6: 
   --- Inactive Energy E0 = -1643.98173667 Eh
CI-ITERATION   0: 
 -1646.343725857   0.000000000000 (    0.00)
 -1646.283430943   0.000000000000
 -1646.283353549   0.000000000000
 -1646.283168824   0.000000000000
 -1646.247030855   0.000000000000
 -1646.246823456   0.000000000000
 -1646.246743607   0.000000000000
 -1646.186225842   0.000000000000
 -1646.186087984   0.000000000000
 -1646.186084808   0.000000000000
   CI-PROBLEM SOLVED
   DENSITIES MADE
CI-ITERATION   0: 
 -1646.255225759   0.000000000000 (    0.00)
 -1646.255204088   0.000000000000
 -1646.250573948   0.000000000000
 -1646.250568033   0.000000000000
 -1646.250550869   0.000000000000
 -1646.219106300   0.000000000000
 -1646.219057744   0.000000000000
 -1646.219051242   0.000000000000
 -1646.208963437   0.000000000000
 -1646.195425037   0.000000000000
 -1646.195384209   0.000000000000
 -1646.195266595   0.000000000000
 -1646.190508579   0.000000000000
 -1646.190469840   0.000000000000
 -1646.190383429   0.000000000000
 -1646.180102376   0.000000000000
 -1646.180054564   0.000000000000
 -1646.163705398   0.000000000000
 -1646.163503247   0.000000000000
 -1646.163416474   0.000000000000
 -1646.134166844   0.000000000000
 -1646.133821528   0.000000000000
 -1646.133662360   0.000000000000
 -1646.132678207   0.000000000000
 -1646.132635830   0.000000000000
 -1646.132544835   0.000000000000
 -1646.111225849   0.000000000000
 -1646.105164150   0.000000000000
 -1646.104993427   0.000000000000
 -1646.104925762   0.000000000000
 -1646.093672122   0.000000000000
 -1646.093553852   0.000000000000
 -1646.076953941   0.000000000000
 -1646.076937877   0.000000000000
 -1646.076899093   0.000000000000
 -1645.991433272   0.000000000000
 -1645.991311442   0.000000000000
 -1645.979291785   0.000000000000
 -1645.979113780   0.000000000000
 -1645.978687702   0.000000000000
   CI-PROBLEM SOLVED
   DENSITIES MADE
   E(CAS)= -1646.195886222 Eh DE=    -0.000000089
   --- Energy gap subspaces: Ext-Act = -0.049   Act-Int = 0.530
   N(occ)=  0.60000 0.60000 0.60000 0.60000 0.60000
   ||g|| =      0.000397306 Max(G)=    -0.000056962 Rot=86,16
                     ---- THE CAS-SCF ENERGY   HAS CONVERGED ----
                     ---- THE CAS-SCF GRADIENT HAS CONVERGED ----
                            --- FINALIZING ORBITALS ---
                    ---- DOING ONE FINAL ITERATION FOR PRINTING ----
   --- d-orbitals (depends on the molecular axis frame)
 L-Center:  0 Cr [-0.000, -0.000, -0.000] 
 Setting 39 active MO to AO dxy     (29)
 Setting 40 active MO to AO dyz     (27)
 Setting 41 active MO to AO dz2     (25)
 Setting 42 active MO to AO dxz     (26)
 Setting 43 active MO to AO dx2y2   (28)
   --- Canonicalize Internal Space
   --- Canonicalize External Space

MACRO-ITERATION   7: 
   --- Inactive Energy E0 = -1643.98173670 Eh
   --- All densities will be recomputed
CI-ITERATION   0: 
 -1646.343725893   0.000000000000 (    0.00)
 -1646.283430980   0.000000000000
 -1646.283353586   0.000000000000
 -1646.283168861   0.000000000000
 -1646.247030892   0.000000000000
 -1646.246823493   0.000000000000
 -1646.246743644   0.000000000000
 -1646.186225879   0.000000000000
 -1646.186088021   0.000000000000
 -1646.186084845   0.000000000000
   CI-PROBLEM SOLVED
   DENSITIES MADE
CI-ITERATION   0: 
 -1646.255225795   0.000000000000 (    0.00)
 -1646.255204124   0.000000000000
 -1646.250573984   0.000000000000
 -1646.250568070   0.000000000000
 -1646.250550905   0.000000000000
 -1646.219106336   0.000000000000
 -1646.219057780   0.000000000000
 -1646.219051278   0.000000000000
 -1646.208963474   0.000000000000
 -1646.195425073   0.000000000000
 -1646.195384246   0.000000000000
 -1646.195266632   0.000000000000
 -1646.190508615   0.000000000000
 -1646.190469876   0.000000000000
 -1646.190383466   0.000000000000
 -1646.180102413   0.000000000000
 -1646.180054600   0.000000000000
 -1646.163705435   0.000000000000
 -1646.163503284   0.000000000000
 -1646.163416511   0.000000000000
 -1646.134166881   0.000000000000
 -1646.133821565   0.000000000000
 -1646.133662398   0.000000000000
 -1646.132678245   0.000000000000
 -1646.132635868   0.000000000000
 -1646.132544872   0.000000000000
 -1646.111225885   0.000000000000
 -1646.105164187   0.000000000000
 -1646.104993463   0.000000000000
 -1646.104925798   0.000000000000
 -1646.093672160   0.000000000000
 -1646.093553889   0.000000000000
 -1646.076953979   0.000000000000
 -1646.076937914   0.000000000000
 -1646.076899130   0.000000000000
 -1645.991433309   0.000000000000
 -1645.991311479   0.000000000000
 -1645.979291822   0.000000000000
 -1645.979113817   0.000000000000
 -1645.978687739   0.000000000000
   CI-PROBLEM SOLVED
   DENSITIES MADE
   E(CAS)= -1646.195886258 Eh DE=    -0.000000037
   --- Energy gap subspaces: Ext-Act = -0.050   Act-Int = 0.530
   N(occ)=  0.60000 0.60000 0.60000 0.60000 0.60000
   ||g|| =      0.000397274 Max(G)=     0.000060583 Rot=87,16
--------------
CASSCF RESULTS
--------------

Final CASSCF energy       : -1646.195886258 Eh  -44795.2674 eV

----------------
ORBITAL ENERGIES
----------------

  NO   OCC          E(Eh)            E(eV) 
   0   2.0000    -221.561558     -6028.9965 
   1   2.0000     -26.331537      -716.5175 
   2   2.0000     -25.659455      -698.2293 
   3   2.0000     -25.659454      -698.2292 
   4   2.0000     -25.659368      -698.2269 
   5   2.0000     -25.659367      -698.2269 
   6   2.0000     -25.659167      -698.2214 
   7   2.0000     -25.659166      -698.2214 
   8   2.0000     -21.986810      -598.2915 
   9   2.0000     -21.986798      -598.2912 
  10   2.0000     -21.986794      -598.2911 
  11   2.0000      -3.072098       -83.5960 
  12   2.0000      -1.775521       -48.3144 
  13   2.0000      -1.775502       -48.3139 
  14   2.0000      -1.775453       -48.3125 
  15   2.0000      -0.924008       -25.1435 
  16   2.0000      -0.908761       -24.7286 
  17   2.0000      -0.908475       -24.7209 
  18   2.0000      -0.907350       -24.6903 
  19   2.0000      -0.907227       -24.6869 
  20   2.0000      -0.906934       -24.6789 
  21   2.0000      -0.074202        -2.0191 
  22   2.0000      -0.050187        -1.3657 
  23   2.0000      -0.049726        -1.3531 
  24   2.0000      -0.041708        -1.1349 
  25   2.0000      -0.041459        -1.1282 
  26   2.0000      -0.041356        -1.1254 
  27   2.0000      -0.039455        -1.0736 
  28   2.0000      -0.039447        -1.0734 
  29   2.0000      -0.039355        -1.0709 
  30   2.0000       0.003250         0.0884 
  31   2.0000       0.003383         0.0920 
  32   2.0000       0.003413         0.0929 
  33   2.0000       0.007329         0.1994 
  34   2.0000       0.007352         0.2001 
  35   2.0000       0.007449         0.2027 
  36   2.0000       0.022587         0.6146 
  37   2.0000       0.022661         0.6166 
  38   2.0000       0.022692         0.6175 
  39   0.6000       0.552531        15.0351 
  40   0.6000       0.552619        15.0375 
  41   0.6000       0.611750        16.6466 
  42   0.6000       0.552494        15.0341 
  43   0.6000       0.611651        16.6439 
  44   0.0000       0.562082        15.2950 
  45   0.0000       0.650637        17.7047 
  46   0.0000       0.650713        17.7068 
  47   0.0000       0.650734        17.7074 
  48   0.0000       0.655016        17.8239 
  49   0.0000       0.655184        17.8285 
  50   0.0000       0.976480        26.5714 
  51   0.0000       0.976490        26.5717 
  52   0.0000       0.976818        26.5806 
  53   0.0000       0.979530        26.6544 
  54   0.0000       1.263611        34.3846 
  55   0.0000       1.263708        34.3872 
  56   0.0000       1.263741        34.3881 
  57   0.0000       1.312311        35.7098 
  58   0.0000       1.312445        35.7134 
  59   0.0000       1.312822        35.7237 
  60   0.0000       1.314683        35.7744 
  61   0.0000       1.352916        36.8147 
  62   0.0000       1.353233        36.8234 
  63   0.0000       1.359616        36.9970 
  64   0.0000       1.359665        36.9984 
  65   0.0000       1.359798        37.0020 
  66   0.0000       1.439106        39.1601 
  67   0.0000       1.439324        39.1660 
  68   0.0000       1.439413        39.1684 
  69   0.0000       1.469666        39.9917 
  70   0.0000       1.469869        39.9972 
  71   0.0000       1.469889        39.9977 
  72   0.0000       1.499824        40.8123 
  73   0.0000       1.499847        40.8129 
  74   0.0000       1.499900        40.8144 
  75   0.0000       1.633863        44.4597 
  76   0.0000       1.633893        44.4605 
  77   0.0000       1.887285        51.3556 
  78   0.0000       1.888327        51.3840 
  79   0.0000       1.912245        52.0348 
  80   0.0000       1.913364        52.0653 
  81   0.0000       1.913516        52.0694 
  82   0.0000       1.921324        52.2819 
  83   0.0000       1.994141        54.2633 
  84   0.0000       1.994249        54.2663 
  85   0.0000       1.994539        54.2742 
  86   0.0000       2.580651        70.2231 
  87   0.0000       2.580971        70.2318 
  88   0.0000       2.787506        75.8519 
  89   0.0000       2.797027        76.1110 
  90   0.0000       2.797447        76.1224 
  91   0.0000       2.797588        76.1262 
  92   0.0000       2.834779        77.1383 
  93   0.0000       2.834857        77.1404 
  94   0.0000       2.834885        77.1411 
  95   0.0000       2.865175        77.9654 
  96   0.0000       2.875976        78.2593 
  97   0.0000       2.876176        78.2647 
  98   0.0000       2.882879        78.4471 
  99   0.0000       2.882921        78.4483 
 100   0.0000       2.883009        78.4507 
 101   0.0000       2.886173        78.5368 
 102   0.0000       2.893620        78.7394 
 103   0.0000       2.893646        78.7401 
 104   0.0000       2.893853        78.7458 
 105   0.0000       3.073116        83.6237 
 106   0.0000       3.073247        83.6273 
 107   0.0000       3.073647        83.6382 
 108   0.0000       3.104997        84.4913 
 109   0.0000       3.106742        84.5388 
 110   0.0000       3.107235        84.5522 
 111   0.0000       3.265426        88.8568 
 112   0.0000       3.265670        88.8634 
 113   0.0000       3.266609        88.8890 
 114   0.0000       3.287039        89.4449 
 115   0.0000       3.288373        89.4812 
 116   0.0000       3.346732        91.0692 
 117   0.0000       3.366234        91.5999 
 118   0.0000       3.366707        91.6127 
 119   0.0000       3.367369        91.6308 
 120   0.0000       3.775913       102.7478 
 121   0.0000       3.777546       102.7923 
 122   0.0000       3.817802       103.8877 
 123   0.0000       3.888917       105.8228 
 124   0.0000       3.889082       105.8273 
 125   0.0000       3.889487       105.8383 
 126   0.0000       3.953600       107.5829 
 127   0.0000       3.953912       107.5914 
 128   0.0000       3.954640       107.6112 
 129   0.0000       4.299485       116.9949 
 130   0.0000       4.299549       116.9967 
 131   0.0000       4.299570       116.9972 
 132   0.0000       4.305171       117.1497 
 133   0.0000       4.305345       117.1544 
 134   0.0000       4.305459       117.1575 
 135   0.0000       4.365678       118.7961 
 136   0.0000       4.365887       118.8018 
 137   0.0000       4.365976       118.8043 
 138   0.0000       4.385909       119.3466 
 139   0.0000       4.386001       119.3491 
 140   0.0000       4.386218       119.3551 
 141   0.0000       4.393735       119.5596 
 142   0.0000       4.563170       124.1702 
 143   0.0000       4.566652       124.2649 
 144   0.0000       4.568142       124.3055 
 145   0.0000       4.614730       125.5732 
 146   0.0000       4.616662       125.6257 
 147   0.0000       4.960758       134.9891 
 148   0.0000       4.962372       135.0330 
 149   0.0000       4.992376       135.8495 
 150   0.0000       4.993585       135.8824 
 151   0.0000       4.994039       135.8947 
 152   0.0000       5.074231       138.0769 
 153   0.0000       7.699257       209.5074 
 154   0.0000       7.700293       209.5356 
 155   0.0000       7.700720       209.5472 
 156   0.0000       8.006030       217.8552 
 157   0.0000       8.006214       217.8602 
 158   0.0000       8.006292       217.8623 
 159   0.0000       8.009528       217.9503 
 160   0.0000       8.009662       217.9540 
 161   0.0000       8.009721       217.9556 
 162   0.0000       8.016792       218.1480 
 163   0.0000       8.016975       218.1530 
 164   0.0000       8.017096       218.1563 
 165   0.0000       8.017329       218.1626 
 166   0.0000       8.019150       218.2122 
 167   0.0000       8.019287       218.2159 
 168   0.0000       8.019603       218.2245 
 169   0.0000       8.021559       218.2777 
 170   0.0000       8.021698       218.2815 
 171   0.0000       8.022019       218.2902 
 172   0.0000       8.022028       218.2905 
 173   0.0000       8.022187       218.2948 
 174   0.0000       8.022253       218.2966 
 175   0.0000       8.023381       218.3273 
 176   0.0000       8.030937       218.5329 
 177   0.0000       8.031059       218.5362 
 178   0.0000       8.031121       218.5379 
 179   0.0000       8.031279       218.5422 
 180   0.0000       8.031324       218.5434 
 181   0.0000       8.031423       218.5461 
 182   0.0000       8.031582       218.5505 
 183   0.0000       8.031785       218.5560 
 184   0.0000       8.031795       218.5562 
 185   0.0000       8.033804       218.6109 
 186   0.0000       8.033950       218.6149 
 187   0.0000       8.034003       218.6163 
 188   0.0000       8.041624       218.8237 
 189   0.0000       8.041631       218.8239 
 190   0.0000       8.041669       218.8249 
 191   0.0000       8.053019       219.1338 
 192   0.0000       8.053199       219.1387 
 193   0.0000       8.134246       221.3441 
 194   0.0000       8.134976       221.3640 
 195   0.0000       8.313083       226.2105 
 196   0.0000       8.314301       226.2436 
 197   0.0000       8.314654       226.2532 
 198   0.0000       9.495173       258.3768 
 199   0.0000       9.495197       258.3775 
 200   0.0000       9.495284       258.3798 
 201   0.0000       9.496601       258.4157 
 202   0.0000       9.499103       258.4837 
 203   0.0000       9.499300       258.4891 
 204   0.0000       9.504418       258.6284 
 205   0.0000       9.505366       258.6542 
 206   0.0000       9.505471       258.6570 
 207   0.0000       9.505716       258.6637 
 208   0.0000       9.517628       258.9878 
 209   0.0000       9.517657       258.9886 
 210   0.0000       9.517819       258.9930 
 211   0.0000       9.518251       259.0048 
 212   0.0000       9.518281       259.0056 
 213   0.0000       9.518351       259.0075 
 214   0.0000       9.665852       263.0212 
 215   0.0000       9.666098       263.0279 
 216   0.0000       9.703850       264.0552 
 217   0.0000       9.704404       264.0702 
 218   0.0000       9.704562       264.0746 
 219   0.0000       9.771426       265.8940 
 220   0.0000       9.815774       267.1008 
 221   0.0000       9.816007       267.1071 
 222   0.0000       9.816566       267.1223 
 223   0.0000       9.924760       270.0665 
 224   0.0000       9.926343       270.1095 
 225   0.0000       9.926948       270.1260 
 226   0.0000       9.971294       271.3327 
 227   0.0000       9.972132       271.3555 
 228   0.0000      14.315874       389.5547 
 229   0.0000      20.319551       552.9231 
 230   0.0000      20.320596       552.9515 
 231   0.0000      20.359293       554.0045 
 232   0.0000      20.360568       554.0392 
 233   0.0000      20.361093       554.0535 
 234   0.0000      20.448282       556.4260 
 235   0.0000      49.573657      1348.9678 
 236   0.0000     103.474007      2815.6709 
 237   0.0000     103.475110      2815.7009 
 238   0.0000     103.506188      2816.5466 
 239   0.0000     103.507545      2816.5835 
 240   0.0000     103.508083      2816.5981 
 241   0.0000     103.594829      2818.9586 
 242   0.0000     119.470648      3250.9616 
 243   0.0000     119.475151      3251.0841 
 244   0.0000     119.476657      3251.1251 
 245   0.0000     296.446708      8066.7250 
 246   0.0000    1722.712697     46877.3957 


---------------------------------------------
CAS-SCF STATES FOR BLOCK  1 MULT= 4 NROOTS=10
---------------------------------------------

ROOT   0:  E=   -1646.3437258932 Eh
      1.00000 [     1]: 11010
ROOT   1:  E=   -1646.2834309795 Eh  1.641 eV  13233.2 cm**-1
      0.74719 [     0]: 11100
      0.25281 [     2]: 11001
ROOT   2:  E=   -1646.2833535864 Eh  1.643 eV  13250.2 cm**-1
      0.99757 [     8]: 01011
ROOT   3:  E=   -1646.2831688609 Eh  1.648 eV  13290.7 cm**-1
      0.74942 [     3]: 10110
      0.24818 [     5]: 10011
ROOT   4:  E=   -1646.2470308923 Eh  2.631 eV  21222.1 cm**-1
      0.46934 [     5]: 10011
      0.35461 [     7]: 01101
      0.15512 [     3]: 10110
      0.01326 [     6]: 01110
      0.00767 [     4]: 10101
ROOT   5:  E=   -1646.2468234933 Eh  2.637 eV  21267.6 cm**-1
      0.62107 [     6]: 01110
      0.35798 [     4]: 10101
      0.01004 [     5]: 10011
      0.00756 [     7]: 01101
      0.00333 [     3]: 10110
ROOT   6:  E=   -1646.2467436439 Eh  2.639 eV  21285.1 cm**-1
      0.47233 [     2]: 11001
      0.36715 [     9]: 00111
      0.16052 [     0]: 11100
ROOT   7:  E=   -1646.1862258790 Eh  4.286 eV  34567.3 cm**-1
      0.49770 [     7]: 01101
      0.21213 [     5]: 10011
      0.13947 [     4]: 10101
      0.08031 [     6]: 01110
      0.07040 [     3]: 10110
ROOT   8:  E=   -1646.1860880212 Eh  4.290 eV  34597.5 cm**-1
      0.49488 [     4]: 10101
      0.28533 [     6]: 01110
      0.14013 [     7]: 01101
      0.05972 [     5]: 10011
      0.01993 [     3]: 10110
ROOT   9:  E=   -1646.1860848451 Eh  4.290 eV  34598.2 cm**-1
      0.63285 [     9]: 00111
      0.27486 [     2]: 11001
      0.09229 [     0]: 11100


---------------------------------------------
CAS-SCF STATES FOR BLOCK  2 MULT= 2 NROOTS=40
---------------------------------------------

ROOT   0:  E=   -1646.2552257949 Eh
      0.94544 [     6]: 11010
      0.02005 [     3]: 20001
      0.01930 [    25]: 00120
      0.00937 [    28]: 00021
ROOT   1:  E=   -1646.2552041243 Eh  0.001 eV      4.8 cm**-1
      0.94563 [     6]: 11010
      0.02311 [    14]: 02100
      0.01274 [     3]: 20001
      0.00884 [    16]: 02001
      0.00565 [    25]: 00120
ROOT   2:  E=   -1646.2505739841 Eh  0.127 eV   1021.0 cm**-1
      0.30134 [    11]: 10020
      0.29850 [     4]: 12000
      0.17173 [    20]: 01020
      0.17126 [     0]: 21000
      0.02319 [    21]: 01011
      0.01085 [     9]: 10110
      0.00686 [    18]: 01110
      0.00634 [    10]: 10101
      0.00631 [    12]: 10011
ROOT   3:  E=   -1646.2505680697 Eh  0.127 eV   1022.3 cm**-1
      0.47298 [     2]: 20010
      0.46983 [    15]: 02010
      0.03011 [     5]: 11100
      0.01708 [     7]: 11001
      0.00410 [    26]: 00111
      0.00297 [    23]: 00210
      0.00293 [    29]: 00012
ROOT   4:  E=   -1646.2505509049 Eh  0.127 eV   1026.0 cm**-1
      0.30046 [    20]: 01020
      0.29957 [     0]: 21000
      0.17235 [    11]: 10020
      0.17068 [     4]: 12000
      0.01896 [     9]: 10110
      0.01321 [    21]: 01011
      0.01090 [    12]: 10011
      0.00389 [    18]: 01110
      0.00364 [    10]: 10101
      0.00260 [    19]: 01101
ROOT   5:  E=   -1646.2191063363 Eh  0.983 eV   7927.3 cm**-1
      0.24648 [     0]: 21000
      0.24569 [    20]: 01020
      0.10249 [     4]: 12000
      0.10148 [    11]: 10020
      0.09957 [     9]: 10110
      0.08340 [    12]: 10011
      0.04536 [    21]: 01011
      0.03098 [    18]: 01110
      0.01949 [    22]: 01002
      0.01086 [     8]: 10200
      0.00900 [    17]: 01200
      0.00307 [    19]: 01101
ROOT   6:  E=   -1646.2190577801 Eh  0.984 eV   7938.0 cm**-1
      0.34870 [    15]: 02010
      0.34678 [     2]: 20010
      0.14188 [     5]: 11100
      0.11833 [     7]: 11001
      0.02754 [    29]: 00012
      0.01253 [    23]: 00210
      0.00424 [    26]: 00111
ROOT   7:  E=   -1646.2190512780 Eh  0.984 eV   7939.4 cm**-1
      0.24681 [     4]: 12000
      0.24504 [    11]: 10020
      0.10869 [    21]: 01011
      0.10224 [     0]: 21000
      0.10219 [    20]: 01020
      0.07473 [    18]: 01110
      0.04123 [     9]: 10110
      0.03449 [    12]: 10011
      0.02623 [     8]: 10200
      0.00814 [    22]: 01002
      0.00521 [    13]: 10002
      0.00374 [    17]: 01200
ROOT   8:  E=   -1646.2089634742 Eh  1.259 eV  10153.4 cm**-1
      0.33266 [     1]: 20100
      0.25191 [    16]: 02001
      0.24889 [    28]: 00021
      0.08428 [    14]: 02100
      0.08226 [    25]: 00120
ROOT   9:  E=   -1646.1954250734 Eh  1.627 eV  13124.7 cm**-1
      0.56267 [     5]: 11100
      0.31000 [     7]: 11001
      0.04135 [    26]: 00111
      0.02958 [     2]: 20010
      0.02837 [    15]: 02010
      0.02800 [    23]: 00210
ROOT  10:  E=   -1646.1953842463 Eh  1.628 eV  13133.7 cm**-1
      0.70546 [    21]: 01011
      0.15063 [    18]: 01110
      0.06148 [    13]: 10002
      0.02881 [    11]: 10020
      0.02716 [     4]: 12000
      0.01183 [     9]: 10110
      0.00631 [     8]: 10200
      0.00581 [    12]: 10011
ROOT  11:  E=   -1646.1952666322 Eh  1.632 eV  13159.5 cm**-1
      0.57434 [     9]: 10110
      0.28362 [    12]: 10011
      0.04019 [    19]: 01101
      0.02744 [    20]: 01020
      0.02735 [    17]: 01200
      0.02692 [     0]: 21000
      0.01444 [    21]: 01011
      0.00312 [    18]: 01110
ROOT  12:  E=   -1646.1905086155 Eh  1.761 eV  14203.8 cm**-1
      0.65581 [     5]: 11100
      0.31003 [     7]: 11001
      0.01356 [    26]: 00111
      0.01095 [    15]: 02010
      0.00900 [     2]: 20010
ROOT  13:  E=   -1646.1904698764 Eh  1.762 eV  14212.3 cm**-1
      0.78319 [    21]: 01011
      0.16145 [    18]: 01110
      0.01405 [     9]: 10110
      0.01379 [    10]: 10101
      0.01103 [     4]: 12000
      0.00832 [    11]: 10020
      0.00735 [    12]: 10011
ROOT  14:  E=   -1646.1903834657 Eh  1.764 eV  14231.2 cm**-1
      0.62036 [     9]: 10110
      0.32508 [    12]: 10011
      0.01771 [    21]: 01011
      0.01305 [    19]: 01101
      0.00980 [     0]: 21000
      0.00900 [    20]: 01020
      0.00370 [    18]: 01110
ROOT  15:  E=   -1646.1801024132 Eh  2.044 eV  16487.7 cm**-1
      0.44522 [    28]: 00021
      0.35686 [     1]: 20100
      0.09355 [    14]: 02100
      0.06478 [    25]: 00120
      0.03424 [     3]: 20001
      0.00306 [    16]: 02001
ROOT  16:  E=   -1646.1800546003 Eh  2.046 eV  16498.2 cm**-1
      0.44884 [    16]: 02001
      0.22066 [     1]: 20100
      0.14623 [    25]: 00120
      0.11560 [    14]: 02100
      0.05434 [     3]: 20001
      0.01204 [    28]: 00021
ROOT  17:  E=   -1646.1637054349 Eh  2.490 eV  20086.4 cm**-1
      0.52761 [    12]: 10011
      0.24923 [     9]: 10110
      0.10834 [    19]: 01101
      0.04746 [    17]: 01200
      0.04693 [    22]: 01002
      0.00894 [     0]: 21000
      0.00885 [    20]: 01020
ROOT  18:  E=   -1646.1635032837 Eh  2.496 eV  20130.8 cm**-1
      0.66974 [    18]: 01110
      0.20380 [    10]: 10101
      0.10637 [    21]: 01011
      0.00885 [     4]: 12000
      0.00858 [    11]: 10020
ROOT  19:  E=   -1646.1634165113 Eh  2.498 eV  20149.8 cm**-1
      0.53046 [     7]: 11001
      0.24740 [     5]: 11100
      0.10783 [    26]: 00111
      0.04911 [    29]: 00012
      0.04789 [    23]: 00210
      0.00875 [    15]: 02010
      0.00857 [     2]: 20010
ROOT  20:  E=   -1646.1341668814 Eh  3.294 eV  26569.4 cm**-1
      0.32719 [    19]: 01101
      0.32474 [    22]: 01002
      0.19031 [    12]: 10011
      0.12084 [     9]: 10110
      0.01523 [    17]: 01200
      0.01106 [    20]: 01020
      0.01057 [     0]: 21000
ROOT  21:  E=   -1646.1338215653 Eh  3.304 eV  26645.1 cm**-1
      0.64540 [     8]: 10200
      0.22506 [    18]: 01110
      0.08298 [    21]: 01011
      0.01331 [    13]: 10002
      0.01185 [    11]: 10020
      0.01163 [    10]: 10101
      0.00970 [     4]: 12000
ROOT  22:  E=   -1646.1336623976 Eh  3.308 eV  26680.1 cm**-1
      0.36434 [    29]: 00012
      0.29762 [    26]: 00111
      0.19418 [     7]: 11001
      0.11497 [     5]: 11100
      0.01173 [     2]: 20010
      0.00995 [    15]: 02010
      0.00721 [    23]: 00210
ROOT  23:  E=   -1646.1326782446 Eh  3.335 eV  26896.1 cm**-1
      0.79709 [    26]: 00111
      0.10726 [    23]: 00210
      0.07026 [    29]: 00012
      0.02073 [     5]: 11100
      0.00265 [    15]: 02010
ROOT  24:  E=   -1646.1326358677 Eh  3.336 eV  26905.4 cm**-1
      0.91895 [    10]: 10101
      0.03658 [    19]: 01101
      0.01907 [    21]: 01011
      0.00755 [     8]: 10200
      0.00564 [    22]: 01002
      0.00474 [    17]: 01200
      0.00270 [     4]: 12000
      0.00265 [    18]: 01110
ROOT  25:  E=   -1646.1325448724 Eh  3.338 eV  26925.4 cm**-1
      0.72951 [    19]: 01101
      0.10507 [    22]: 01002
      0.09542 [    17]: 01200
      0.04663 [    10]: 10101
      0.01253 [     9]: 10110
      0.00607 [    12]: 10011
ROOT  26:  E=   -1646.1112258855 Eh  3.918 eV  31604.3 cm**-1
      0.33394 [     3]: 20001
      0.25295 [    25]: 00120
      0.24736 [    14]: 02100
      0.08326 [    16]: 02001
      0.08245 [    28]: 00021
ROOT  27:  E=   -1646.1051641868 Eh  4.083 eV  32934.7 cm**-1
      0.36774 [    12]: 10011
      0.26987 [    19]: 01101
      0.12464 [     9]: 10110
      0.06586 [     0]: 21000
      0.06579 [    20]: 01020
      0.05255 [    22]: 01002
      0.03764 [    17]: 01200
      0.00791 [    18]: 01110
      0.00312 [     8]: 10200
      0.00271 [    13]: 10002
ROOT  28:  E=   -1646.1049934634 Eh  4.088 eV  32972.2 cm**-1
      0.48934 [    18]: 01110
      0.19486 [     8]: 10200
      0.16642 [    13]: 10002
      0.06511 [     4]: 12000
      0.06485 [    11]: 10020
      0.00592 [    12]: 10011
      0.00433 [    19]: 01101
      0.00351 [    21]: 01011
ROOT  29:  E=   -1646.1049257984 Eh  4.090 eV  32987.0 cm**-1
      0.37333 [     7]: 11001
      0.27474 [    26]: 00111
      0.12769 [     5]: 11100
      0.06576 [    15]: 02010
      0.06558 [     2]: 20010
      0.05351 [    29]: 00012
      0.03938 [    23]: 00210
ROOT  30:  E=   -1646.0936721597 Eh  4.396 eV  35456.9 cm**-1
      0.37420 [    27]: 00102
      0.23828 [    24]: 00201
      0.14615 [    14]: 02100
      0.07954 [     3]: 20001
      0.06210 [    16]: 02001
      0.04750 [    25]: 00120
      0.03325 [     6]: 11010
      0.01645 [     1]: 20100
      0.00251 [    28]: 00021
ROOT  31:  E=   -1646.0935538890 Eh  4.399 eV  35482.9 cm**-1
      0.37158 [    24]: 00201
      0.23662 [    27]: 00102
      0.13048 [     3]: 20001
      0.11540 [    25]: 00120
      0.07029 [    28]: 00021
      0.03358 [     6]: 11010
      0.02030 [    14]: 02100
      0.01128 [    16]: 02001
      0.01047 [     1]: 20100
ROOT  32:  E=   -1646.0769539785 Eh  4.851 eV  39126.1 cm**-1
      0.35151 [    26]: 00111
      0.22179 [    29]: 00012
      0.22047 [    23]: 00210
      0.12413 [     7]: 11001
      0.06562 [     5]: 11100
      0.00839 [    15]: 02010
      0.00808 [     2]: 20010
ROOT  33:  E=   -1646.0769379138 Eh  4.851 eV  39129.7 cm**-1
      0.79369 [    10]: 10101
      0.15219 [    18]: 01110
      0.03684 [    21]: 01011
      0.00844 [     4]: 12000
      0.00801 [    11]: 10020
ROOT  34:  E=   -1646.0768991298 Eh  4.853 eV  39138.2 cm**-1
      0.34981 [    19]: 01101
      0.22288 [    17]: 01200
      0.22235 [    22]: 01002
      0.12224 [    12]: 10011
      0.06547 [     9]: 10110
      0.00827 [     0]: 21000
      0.00814 [    20]: 01020
ROOT  35:  E=   -1645.9914333091 Eh  7.178 eV  57895.8 cm**-1
      0.23756 [    24]: 00201
      0.20488 [     3]: 20001
      0.17648 [    25]: 00120
      0.15014 [    27]: 00102
      0.12041 [    28]: 00021
      0.03861 [    14]: 02100
      0.02866 [    16]: 02001
      0.02361 [     1]: 20100
      0.01964 [     6]: 11010
ROOT  36:  E=   -1645.9913114789 Eh  7.181 eV  57922.5 cm**-1
      0.23493 [    27]: 00102
      0.22928 [    14]: 02100
      0.14847 [    24]: 00201
      0.12977 [     3]: 20001
      0.10169 [    16]: 02001
      0.08946 [    25]: 00120
      0.03782 [     1]: 20100
      0.01976 [     6]: 11010
      0.00882 [    28]: 00021
ROOT  37:  E=   -1645.9792918218 Eh  7.509 eV  60560.5 cm**-1
      0.53388 [    23]: 00210
      0.21026 [    29]: 00012
      0.10797 [    26]: 00111
      0.04669 [     2]: 20010
      0.04664 [    15]: 02010
      0.03310 [     5]: 11100
      0.02144 [     7]: 11001
ROOT  38:  E=   -1645.9791138171 Eh  7.513 eV  60599.6 cm**-1
      0.74193 [    13]: 10002
      0.10456 [     8]: 10200
      0.04625 [    11]: 10020
      0.04618 [     4]: 12000
      0.03838 [    21]: 01011
      0.01563 [    18]: 01110
      0.00378 [    17]: 01200
ROOT  39:  E=   -1645.9786877388 Eh  7.525 eV  60693.1 cm**-1
      0.52805 [    17]: 01200
      0.20914 [    22]: 01002
      0.11018 [    19]: 01101
      0.04595 [    20]: 01020
      0.04592 [     0]: 21000
      0.03251 [     9]: 10110
      0.02117 [    12]: 10011
      0.00527 [    13]: 10002


-----------------------------
SA-CASSCF TRANSITION ENERGIES
------------------------------

LOWEST ROOT (ROOT 0 ,MULT 4) =  -1646.343725893 Eh -44799.290 eV

STATE   ROOT MULT  DE/a.u.    DE/eV    DE/cm**-1
   1:    1    4   0.060295     1.641  13233.2
   2:    2    4   0.060372     1.643  13250.2
   3:    3    4   0.060557     1.648  13290.7
   4:    0    2   0.088500     2.408  19423.5
   5:    1    2   0.088522     2.409  19428.3
   6:    2    2   0.093152     2.535  20444.5
   7:    3    2   0.093158     2.535  20445.8
   8:    4    2   0.093175     2.535  20449.5
   9:    4    4   0.096695     2.631  21222.1
  10:    5    4   0.096902     2.637  21267.6
  11:    6    4   0.096982     2.639  21285.1
  12:    5    2   0.124620     3.391  27350.8
  13:    6    2   0.124668     3.392  27361.5
  14:    7    2   0.124675     3.393  27362.9
  15:    8    2   0.134762     3.667  29576.9
  16:    9    2   0.148301     4.035  32548.3
  17:   10    2   0.148342     4.037  32557.2
  18:   11    2   0.148459     4.040  32583.0
  19:   12    2   0.153217     4.169  33627.3
  20:   13    2   0.153256     4.170  33635.8
  21:   14    2   0.153342     4.173  33654.8
  22:    7    4   0.157500     4.286  34567.3
  23:    8    4   0.157638     4.290  34597.5
  24:    9    4   0.157641     4.290  34598.2
  25:   15    2   0.163623     4.452  35911.2
  26:   16    2   0.163671     4.454  35921.7
  27:   17    2   0.180020     4.899  39509.9
  28:   18    2   0.180223     4.904  39554.3
  29:   19    2   0.180309     4.906  39573.3
  30:   20    2   0.209559     5.702  45992.9
  31:   21    2   0.209904     5.712  46068.7
  32:   22    2   0.210063     5.716  46103.6
  33:   23    2   0.211048     5.743  46319.6
  34:   24    2   0.211090     5.744  46328.9
  35:   25    2   0.211181     5.747  46348.9
  36:   26    2   0.232500     6.327  51027.9
  37:   27    2   0.238562     6.492  52358.2
  38:   28    2   0.238732     6.496  52395.7
  39:   29    2   0.238800     6.498  52410.6
  40:   30    2   0.250054     6.804  54880.5
  41:   31    2   0.250172     6.808  54906.4
  42:   32    2   0.266772     7.259  58549.7
  43:   33    2   0.266788     7.260  58553.2
  44:   34    2   0.266827     7.261  58561.7
  45:   35    2   0.352293     9.586  77319.3
  46:   36    2   0.352414     9.590  77346.0
  47:   37    2   0.364434     9.917  79984.0
  48:   38    2   0.364612     9.922  80023.1
  49:   39    2   0.365038     9.933  80116.6


--------------
DENSITY MATRIX
--------------

                   0          1          2          3          4    
      0       0.600000  -0.000000   0.000000   0.000000  -0.000000
      1      -0.000000   0.600000  -0.000000  -0.000000  -0.000000
      2       0.000000  -0.000000   0.600000   0.000000   0.000000
      3       0.000000  -0.000000   0.000000   0.600000   0.000000
      4      -0.000000  -0.000000   0.000000   0.000000   0.600000
Trace of the electron density:  3.000000

-------------------
SPIN-DENSITY MATRIX
-------------------

                   0          1          2          3          4    
      0       0.400000  -0.000000  -0.000000   0.000000  -0.000000
      1      -0.000000   0.400000  -0.000000  -0.000000  -0.000000
      2      -0.000000  -0.000000   0.400000   0.000000  -0.000000
      3       0.000000  -0.000000   0.000000   0.400000   0.000000
      4      -0.000000  -0.000000  -0.000000   0.000000   0.400000
Trace of the spin density:  2.000000

-----------------
ENERGY COMPONENTS
-----------------

One electron energy          :  -3476.292123884 Eh      -94594.7178 eV
Two electron energy          :   1256.196914643 Eh       34182.8559 eV
Nuclear repulsion energy     :    573.899322982 Eh       15616.5945 eV
                               ----------------
                                -1646.195886258

Kinetic energy               :   1679.960059513 Eh       45714.0373 eV
Potential energy             :  -3326.155945772 Eh      -90509.3047 eV
Virial ratio                 :     -1.979901800 
                               ----------------
                                -1646.195886258

Core energy                  :  -1643.981736704 Eh   -44735.0173 eV


----------------------------
LOEWDIN ORBITAL-COMPOSITIONS
----------------------------

                      0         1         2         3         4         5   
                 -221.56156 -26.33154 -25.65945 -25.65945 -25.65937 -25.65937
                   2.00000   2.00000   2.00000   2.00000   2.00000   2.00000
                  --------  --------  --------  --------  --------  --------
 0 Cr s             100.0     100.0       0.0       0.0       0.0       0.0
 3 F  s               0.0       0.0      50.0      49.9       0.0       0.1
 4 F  s               0.0       0.0      50.0      49.9       0.0       0.1
 5 F  s               0.0       0.0       0.0       0.1      50.0      49.9
[...]
B(  0-Cr,  1-F ) :   0.2812 B(  0-Cr,  2-F ) :   0.2812 B(  0-Cr,  3-F ) :   0.2816 
B(  0-Cr,  4-F ) :   0.2816 B(  0-Cr,  5-F ) :   0.2815 B(  0-Cr,  6-F ) :   0.2815 



-------------------------------------------------------------
 Forming the transition density       ... done in 0.036802 sec
-------------------------------------------------------------



==========================================
CASSCF UV, CD spectra and dipole moments
==========================================
-------------------
ABSORPTION SPECTRUM
-------------------

Center of mass           = (  0.0000,  0.0000,  0.0000)
Nuclear contribution to the dipole moment =     0.000000,    0.000000,    0.000000 au

Calculating the dipole integrals                  ... done
Transforming integrals                            ... done
Calculating the Linear Momentum integrals         ... done
Transforming integrals                            ... done
Calculating the Angular Momentum integrals        ... done
Transforming integrals                            ... done

Ground state mult:    4
Ground state block:   0
Ground state root:    0


------------------------------------------------------------------------------------------
                                ABSORPTION SPECTRUM
------------------------------------------------------------------------------------------
  States           Energy   Wavelength   fosc          T2        TX         TY        TZ  
                   (cm-1)     (nm)                   (D**2)      (D)        (D)       (D) 
------------------------------------------------------------------------------------------
  0( 0)-> 1( 0) 4   13233.2    755.7   0.000000000   0.00000  -0.00000  -0.00000  -0.00000
  0( 0)-> 2( 0) 4   13250.2    754.7   0.000000000   0.00000  -0.00000   0.00000  -0.00000
  0( 0)-> 3( 0) 4   13290.7    752.4   0.000000000   0.00000  -0.00000  -0.00000   0.00000
  0( 0)-> 4( 0) 4   21222.1    471.2   0.000000000   0.00000   0.00000  -0.00000  -0.00000
  0( 0)-> 5( 0) 4   21267.6    470.2   0.000000000   0.00000  -0.00000  -0.00000   0.00000
  0( 0)-> 6( 0) 4   21285.1    469.8   0.000000000   0.00000   0.00000  -0.00000   0.00000
  0( 0)-> 7( 0) 4   34567.3    289.3   0.000000000   0.00000  -0.00000  -0.00000   0.00000
  0( 0)-> 8( 0) 4   34597.5    289.0   0.000000000   0.00000  -0.00000  -0.00000   0.00000
  0( 0)-> 9( 0) 4   34598.2    289.0   0.000000000   0.00000  -0.00000   0.00000  -0.00000
------------------------------------------------------------------------------------------



------------------------------------------------------------------------------
                             CD SPECTRUM
------------------------------------------------------------------------------
      States        Energy   Wavelength   R*T        RX        RY        RZ   
                    (cm-1)      (nm)   (1e40*sgs)   (au)      (au)      (au)  
------------------------------------------------------------------------------
  0( 0)-> 1( 0) 4   13233.2    755.7     0.00000  -0.00000  -0.88110   0.00002
  0( 0)-> 2( 0) 4   13250.2    754.7    -0.00000  -0.04340   0.00002   0.87991
  0( 0)-> 3( 0) 4   13290.7    752.4     0.00000   0.87958   0.00000   0.04294
  0( 0)-> 4( 0) 4   21222.1    471.2    -0.00000  -0.00122   0.00000   0.00056
  0( 0)-> 5( 0) 4   21267.6    470.2    -0.00000  -0.00021  -0.00000  -0.00402
  0( 0)-> 6( 0) 4   21285.1    469.8     0.00000   0.00000  -0.00283   0.00000
  0( 0)-> 7( 0) 4   34567.3    289.3     0.00000  -0.00031   0.00000  -0.00054
  0( 0)-> 8( 0) 4   34597.5    289.0    -0.00000   0.00012  -0.00000  -0.00094
  0( 0)-> 9( 0) 4   34598.2    289.0     0.00000   0.00000   0.00076  -0.00000
------------------------------------------------------------------------------

------------------------------------------------------------------------------
                                 DIPOLE MOMENTS
------------------------------------------------------------------------------
  Root  Block           TX        TY        TZ           |T|
                      (Debye)   (Debye)   (Debye)      (Debye)
------------------------------------------------------------------------------
    0    0           -0.00000   0.00000   0.00000      0.00000


                 =============================
                 AB INITIO LIGAND FIELD THEORY
                       d3 configuration
                          2 CI blocks
                         MOs 39 to 43
                       18 Fit parameters
                 =============================

Metal center is atom 0
orbital phases =   1.0   1.0   1.0   1.0   1.0 
Metal d-orbital parts of active orbitals
Shell 15
             39        40        41        42        43
dz2     : -0.000000  0.000000  0.727557  0.000007  0.000066
dxz     :  0.000000  0.000000  0.000013  0.704857  0.000014
dyz     :  0.000010  0.704888 -0.000000  0.000000  0.000000
dx2y2   : -0.000000 -0.000000  0.000039  0.000022  0.727532
dxy     :  0.704867  0.000004  0.000000  0.000000 -0.000000
Shell 16
             39        40        41        42        43
dz2     : -0.000000  0.000000  0.394129 -0.000003 -0.000008
dxz     : -0.000000 -0.000000 -0.000003  0.397720 -0.000010
dyz     : -0.000001  0.397711  0.000000 -0.000000 -0.000000
dx2y2   :  0.000000 -0.000000 -0.000023 -0.000001  0.394136
dxy     :  0.397717 -0.000004 -0.000000 -0.000000  0.000000
Shell 17
             39        40        41        42        43
dz2     : -0.000000  0.000000  0.118826 -0.000007 -0.000002
dxz     : -0.000000 -0.000000  0.000014  0.125766  0.000022
dyz     : -0.000003  0.125788  0.000000 -0.000000 -0.000000
dx2y2   :  0.000000 -0.000000 -0.000006 -0.000011  0.118828
dxy     :  0.125772 -0.000004 -0.000000 -0.000000  0.000000
Shell 19
             39        40        41        42        43
dz2     :  0.000000 -0.000000  0.043731  0.000017  0.000080
dxz     : -0.000000 -0.000000  0.000026 -0.031661  0.000045
dyz     : -0.000009 -0.031740  0.000000 -0.000000 -0.000000
dx2y2   :  0.000000  0.000000  0.000078  0.000030  0.043694
dxy     : -0.031685 -0.000009 -0.000000 -0.000000  0.000000

Adjusting phases of one-electron integrals   ... done
Adjusting phases of two-electron integrals   ... done
Calculating ab initio Hamiltonian matrices   ... done
Preparing for fit                            ... done
Calculating fit matrices                     ... done
The linear equation system is singular.
The Moore-Penrose inverse is used.

------------------------------
AILFT MATRIX ELEMENTS (CASSCF)
------------------------------

E0              =  0.052016128 a.u. =     1.415 eV =   11416.2 cm**-1
H(dxy   ,dxy   )=  0.007072711 a.u. =     0.192 eV =    1552.3 cm**-1
H(dyz   ,dxy   )=  0.000018604 a.u. =     0.001 eV =       4.1 cm**-1
H(dyz   ,dyz   )=  0.007163347 a.u. =     0.195 eV =    1572.2 cm**-1
H(dz2   ,dxy   )=  0.000000000 a.u. =     0.000 eV =       0.0 cm**-1
H(dz2   ,dyz   )= -0.000000000 a.u. =    -0.000 eV =      -0.0 cm**-1
H(dz2   ,dz2   )=  0.067440810 a.u. =     1.835 eV =   14801.5 cm**-1
H(dxz   ,dxy   )=  0.000000002 a.u. =     0.000 eV =       0.0 cm**-1
H(dxz   ,dyz   )=  0.000000000 a.u. =     0.000 eV =       0.0 cm**-1
H(dxz   ,dz2   )=  0.000025651 a.u. =     0.001 eV =       5.6 cm**-1
H(dxz   ,dxz   )=  0.007033581 a.u. =     0.191 eV =    1543.7 cm**-1
H(dx2-y2,dxy   )= -0.000000000 a.u. =    -0.000 eV =      -0.0 cm**-1
H(dx2-y2,dyz   )=  0.000000000 a.u. =     0.000 eV =       0.0 cm**-1
H(dx2-y2,dz2   )=  0.000223296 a.u. =     0.006 eV =      49.0 cm**-1
H(dx2-y2,dxz   )=  0.000044907 a.u. =     0.001 eV =       9.9 cm**-1
H(dx2-y2,dx2-y2)=  0.067337934 a.u. =     1.832 eV =   14779.0 cm**-1
B               =  0.004879476 a.u. =     0.133 eV =    1070.9 cm**-1
C               =  0.018321948 a.u. =     0.499 eV =    4021.2 cm**-1 (C/B=  3.75)

The ligand field one electron eigenfunctions:
Orbital    Energy (eV)  Energy(cm-1)      dxy        dyz        dz2        dxz        dx2-y2
    1          0.000        0.0        -0.000052   0.000007  -0.000422   1.000000  -0.000743 
    2          0.001        7.8         0.981092  -0.193542  -0.000000   0.000052  -0.000000 
    3          0.004       29.3        -0.193542  -0.981092  -0.000000  -0.000004   0.000000 
    4          1.636    13196.3         0.000000  -0.000000   0.622731  -0.000319  -0.782436 
    5          1.649    13296.9         0.000000   0.000000   0.782436   0.000793   0.622730 
Ligand field orbitals were stored in mol.casscf.lft.gbw

Calculating ligand field Hamiltonian matrices          ... done
Diagonalizing and fitting the ligand field Hamiltonian ... done
Calculating statistical parameters                     ... done

Reference energy AI-LFT =      0.000093598 au
Reference energy AI     =     -2.361989189 au

------------------------------------------------
COMPARISON OF AB INITIO AND LIGAND FIELD RESULTS
------------------------------------------------

Block   1
---------
   AI-Root   0: E(AI)=    0.000 eV -> LF-Root   0:     0.000 eV    S= 1.000 Delta=    0.000 eV
   AI-Root   1: E(AI)=    1.641 eV -> LF-Root   1:     1.638 eV    S= 1.000 Delta=    0.003 eV
   AI-Root   2: E(AI)=    1.643 eV -> LF-Root   2:     1.640 eV    S= 1.000 Delta=    0.003 eV
   AI-Root   3: E(AI)=    1.648 eV -> LF-Root   3:     1.645 eV    S= 1.000 Delta=    0.003 eV
   AI-Root   4: E(AI)=    2.631 eV -> LF-Root   4:     2.625 eV    S= 1.000 Delta=    0.006 eV
   AI-Root   5: E(AI)=    2.637 eV -> LF-Root   5:     2.631 eV    S= 1.000 Delta=    0.006 eV
   AI-Root   6: E(AI)=    2.639 eV -> LF-Root   6:     2.633 eV    S= 1.000 Delta=    0.006 eV
   AI-Root   7: E(AI)=    4.286 eV -> LF-Root   7:     4.282 eV    S= 1.000 Delta=    0.004 eV
   AI-Root   8: E(AI)=    4.290 eV -> LF-Root   8:     4.286 eV    S= 1.000 Delta=    0.004 eV
   AI-Root   9: E(AI)=    4.290 eV -> LF-Root   9:     4.286 eV    S= 1.000 Delta=    0.004 eV
   (Dropping RMS error for the reference energy)
   RMS error for this block =     0.004 eV =      35.8 cm**-1 

Block   2
---------
   AI-Root   0: E(AI)=    2.408 eV -> LF-Root   0:     2.398 eV    S= 1.000 Delta=    0.010 eV
   AI-Root   1: E(AI)=    2.409 eV -> LF-Root   1:     2.399 eV    S= 1.000 Delta=    0.010 eV
   AI-Root   2: E(AI)=    2.535 eV -> LF-Root   2:     2.528 eV    S= 0.999 Delta=    0.007 eV
   AI-Root   3: E(AI)=    2.535 eV -> LF-Root   3:     2.528 eV    S= 1.000 Delta=    0.007 eV
   AI-Root   4: E(AI)=    2.535 eV -> LF-Root   4:     2.529 eV    S= 0.999 Delta=    0.007 eV
   AI-Root   5: E(AI)=    3.391 eV -> LF-Root   5:     3.378 eV    S= 0.999 Delta=    0.013 eV
   AI-Root   6: E(AI)=    3.392 eV -> LF-Root   6:     3.380 eV    S= 1.000 Delta=    0.013 eV
   AI-Root   7: E(AI)=    3.393 eV -> LF-Root   7:     3.380 eV    S= 0.999 Delta=    0.013 eV
   AI-Root   8: E(AI)=    3.667 eV -> LF-Root   8:     3.668 eV    S= 1.000 Delta=   -0.001 eV
   AI-Root   9: E(AI)=    4.035 eV -> LF-Root   9:     4.044 eV    S= 1.000 Delta=   -0.008 eV
   AI-Root  10: E(AI)=    4.037 eV -> LF-Root  10:     4.045 eV    S= 1.000 Delta=   -0.008 eV
   AI-Root  11: E(AI)=    4.040 eV -> LF-Root  11:     4.048 eV    S= 1.000 Delta=   -0.009 eV
   AI-Root  12: E(AI)=    4.169 eV -> LF-Root  12:     4.169 eV    S= 1.000 Delta=   -0.000 eV
   AI-Root  13: E(AI)=    4.170 eV -> LF-Root  13:     4.170 eV    S= 1.000 Delta=   -0.000 eV
   AI-Root  14: E(AI)=    4.173 eV -> LF-Root  14:     4.173 eV    S= 1.000 Delta=   -0.000 eV
   AI-Root  15: E(AI)=    4.452 eV -> LF-Root  15:     4.451 eV    S= 1.000 Delta=    0.002 eV
   AI-Root  16: E(AI)=    4.454 eV -> LF-Root  16:     4.452 eV    S= 1.000 Delta=    0.002 eV
   AI-Root  17: E(AI)=    4.899 eV -> LF-Root  17:     4.907 eV    S= 1.000 Delta=   -0.009 eV
   AI-Root  18: E(AI)=    4.904 eV -> LF-Root  18:     4.913 eV    S= 1.000 Delta=   -0.009 eV
   AI-Root  19: E(AI)=    4.906 eV -> LF-Root  19:     4.915 eV    S= 1.000 Delta=   -0.009 eV
   AI-Root  20: E(AI)=    5.702 eV -> LF-Root  20:     5.697 eV    S= 1.000 Delta=    0.005 eV
   AI-Root  21: E(AI)=    5.712 eV -> LF-Root  21:     5.707 eV    S= 1.000 Delta=    0.005 eV
   AI-Root  22: E(AI)=    5.716 eV -> LF-Root  22:     5.711 eV    S= 1.000 Delta=    0.005 eV
   AI-Root  23: E(AI)=    5.743 eV -> LF-Root  23:     5.751 eV    S= 1.000 Delta=   -0.008 eV
   AI-Root  24: E(AI)=    5.744 eV -> LF-Root  24:     5.752 eV    S= 1.000 Delta=   -0.008 eV
   AI-Root  25: E(AI)=    5.747 eV -> LF-Root  25:     5.754 eV    S= 1.000 Delta=   -0.008 eV
   AI-Root  26: E(AI)=    6.327 eV -> LF-Root  26:     6.323 eV    S= 1.000 Delta=    0.003 eV
   AI-Root  27: E(AI)=    6.492 eV -> LF-Root  27:     6.487 eV    S= 1.000 Delta=    0.004 eV
   AI-Root  28: E(AI)=    6.496 eV -> LF-Root  28:     6.492 eV    S= 1.000 Delta=    0.005 eV
   AI-Root  29: E(AI)=    6.498 eV -> LF-Root  29:     6.494 eV    S= 1.000 Delta=    0.005 eV
   AI-Root  30: E(AI)=    6.804 eV -> LF-Root  30:     6.782 eV    S= 1.000 Delta=    0.023 eV
   AI-Root  31: E(AI)=    6.808 eV -> LF-Root  31:     6.784 eV    S= 1.000 Delta=    0.023 eV
   AI-Root  32: E(AI)=    7.259 eV -> LF-Root  32:     7.263 eV    S= 1.000 Delta=   -0.003 eV
   AI-Root  33: E(AI)=    7.260 eV -> LF-Root  33:     7.263 eV    S= 1.000 Delta=   -0.003 eV
   AI-Root  34: E(AI)=    7.261 eV -> LF-Root  34:     7.264 eV    S= 1.000 Delta=   -0.003 eV
   AI-Root  35: E(AI)=    9.586 eV -> LF-Root  35:     9.584 eV    S= 1.000 Delta=    0.002 eV
   AI-Root  36: E(AI)=    9.590 eV -> LF-Root  36:     9.587 eV    S= 1.000 Delta=    0.002 eV
   AI-Root  37: E(AI)=    9.917 eV -> LF-Root  37:     9.913 eV    S= 1.000 Delta=    0.003 eV
   AI-Root  38: E(AI)=    9.922 eV -> LF-Root  38:     9.918 eV    S= 1.000 Delta=    0.003 eV
   AI-Root  39: E(AI)=    9.933 eV -> LF-Root  39:     9.930 eV    S= 1.000 Delta=    0.003 eV
   RMS error for this block =     0.008 eV =      67.0 cm**-1 

Total RMS error g=     0.008 eV =      62.4 cm**-1
Note: Dropped RMS error for the reference energy.

Confidence intervals (95%) computed from the square root of the
diagonal elements of the covariance matrix:
H(dxy   ,dxy   )=  0.000000000 a.u. =     0.000 eV =       0.0 cm**-1
H(dyz   ,dxy   )=  0.000000000 a.u. =     0.000 eV =       0.0 cm**-1
H(dyz   ,dyz   )=  0.000000000 a.u. =     0.000 eV =       0.0 cm**-1
H(dz2   ,dxy   )=  0.000000000 a.u. =     0.000 eV =       0.0 cm**-1
H(dz2   ,dyz   )=  0.000000000 a.u. =     0.000 eV =       0.0 cm**-1
H(dz2   ,dz2   )=  0.000000000 a.u. =     0.000 eV =       0.0 cm**-1
H(dxz   ,dxy   )=  0.000000000 a.u. =     0.000 eV =       0.0 cm**-1
H(dxz   ,dyz   )=  0.000000000 a.u. =     0.000 eV =       0.0 cm**-1
H(dxz   ,dz2   )=  0.000000000 a.u. =     0.000 eV =       0.0 cm**-1
H(dxz   ,dxz   )=  0.000000000 a.u. =     0.000 eV =       0.0 cm**-1
H(dx2-y2,dxy   )=  0.000000000 a.u. =     0.000 eV =       0.0 cm**-1
H(dx2-y2,dyz   )=  0.000000000 a.u. =     0.000 eV =       0.0 cm**-1
H(dx2-y2,dz2   )=  0.000000000 a.u. =     0.000 eV =       0.0 cm**-1
H(dx2-y2,dxz   )=  0.000000000 a.u. =     0.000 eV =       0.0 cm**-1
H(dx2-y2,dx2-y2)=  0.000000000 a.u. =     0.000 eV =       0.0 cm**-1
B               =  0.000000000 a.u. =     0.000 eV =       0.0 cm**-1
C               =  0.000000000 a.u. =     0.000 eV =       0.0 cm**-1
Pearson's correlation coefficient =    1.000 (should be close to 1)

--------------
CASSCF TIMINGS
--------------

Total time                       ...      389.9 sec
Sum of individual times          ...      389.4 sec ( 99.9%)

Calculation of AO operators
   F(Core) operator              ...       68.1 sec ( 17.5%)
   G(Act) operator               ...       56.7 sec ( 14.5%)
   J(AO) operators               ...        0.0 sec (  0.0%)
Calculation of MO transformed quantities
   J(MO) operators               ...      264.2 sec ( 67.8%)
   (pq|rs) integrals             ...        0.0 sec (  0.0%)
   AO->MO one electron integrals ...        0.0 sec (  0.0%)
Configuration interaction steps
   CI-setup phase                ...        0.0 sec (  0.0%)
   CI-solution phase             ...        0.2 sec (  0.0%)
   Generation of densities       ...        0.0 sec (  0.0%)
Orbital improvement steps
   Orbital gradient              ...        0.0 sec (  0.0%)
   O(1) converger                ...        0.1 sec (  0.0%)
Properties                       ...        0.1 sec (  0.0%)
   SOC integral calculation      ...        0.0 sec (  0.0%)
   SSC RMEs (incl. integrals)    ...        0.0 sec (  0.0%)
   SOC RMEs                      ...        0.0 sec (  0.0%)

-------------------------   --------------------
FINAL SINGLE POINT ENERGY     -1646.195886258475
-------------------------   --------------------


                            ***************************************
                            *     ORCA property calculations      *
                            ***************************************

                                    ---------------------
                                    Active property flags
                                    ---------------------
   (+) Dipole Moment


------------------------------------------------------------------------------
                       ORCA ELECTRIC PROPERTIES CALCULATION
------------------------------------------------------------------------------

Dipole Moment Calculation                       ... on
Quadrupole Moment Calculation                   ... off
Polarizability Calculation                      ... off
GBWName                                         ... mol.gbw
Electron density file                           ... mol.scfp
The origin for moment calculation is the CENTER OF MASS  = ( 0.000000,  0.000000  0.000000)

-------------
DIPOLE MOMENT
-------------
                                X             Y             Z
Electronic contribution:     -0.00000       0.00000      -0.00000
Nuclear contribution   :      0.00000       0.00000       0.00000
                        -----------------------------------------
Total Dipole Moment    :     -0.00000       0.00000      -0.00000
                        -----------------------------------------
Magnitude (a.u.)       :      0.00000
Magnitude (Debye)      :      0.00000



--------------------
Rotational spectrum 
--------------------
 
Rotational constants in cm-1:     0.058957     0.058870     0.058856 
Rotational constants in MHz :  1767.478331  1764.878199  1764.461901 

 Dipole components along the rotational axes: 
x,y,z [a.u.] :     0.000000     0.000000    -0.000000 
x,y,z [Debye]:     0.000000     0.000000    -0.000000 

 

Timings for individual modules:

Sum of individual times         ...      391.200 sec (=   6.520 min)
GTO integral calculation        ...        0.327 sec (=   0.005 min)   0.1 %
Relativistic integrals          ...        0.420 sec (=   0.007 min)   0.1 %
SCF iterations                  ...        0.234 sec (=   0.004 min)   0.1 %
CASSCF iterations               ...      390.219 sec (=   6.504 min)  99.7 %
                             ****ORCA TERMINATED NORMALLY****
TOTAL RUN TIME: 0 days 0 hours 6 minutes 31 seconds 459 msec
'mol.casscf.lft.gbw' -> '/csnfs/users/llang/calculations/AILFT-Paper/complexes/3d3/F/CASSCF_CPCMstruct/CASSCF/mol.casscf.lft.gbw'
'mol.err' -> '/csnfs/users/llang/calculations/AILFT-Paper/complexes/3d3/F/CASSCF_CPCMstruct/CASSCF/mol.err'
'mol.gbw' -> '/csnfs/users/llang/calculations/AILFT-Paper/complexes/3d3/F/CASSCF_CPCMstruct/CASSCF/mol.gbw'
'mol.ges' -> '/csnfs/users/llang/calculations/AILFT-Paper/complexes/3d3/F/CASSCF_CPCMstruct/CASSCF/mol.ges'
'mol.job' -> '/csnfs/users/llang/calculations/AILFT-Paper/complexes/3d3/F/CASSCF_CPCMstruct/CASSCF/mol.job'
'mol.prop' -> '/csnfs/users/llang/calculations/AILFT-Paper/complexes/3d3/F/CASSCF_CPCMstruct/CASSCF/mol.prop'
'mol_property.txt' -> '/csnfs/users/llang/calculations/AILFT-Paper/complexes/3d3/F/CASSCF_CPCMstruct/CASSCF/mol_property.txt'
cp: cannot stat 'mol.asa.inp': No such file or directory
